# vtk DataFile Version 2.0
VTK from Matlab
ASCII
DATASET STRUCTURED_GRID
DIMENSIONS 4667 1 1
POINTS 4667 float
10.000000 37.000000 4.000000 10.000000 37.000000 5.000000 11.000000 37.000000 5.000000 26.000000 38.000000 5.000000 8.000000 40.000000 5.000000 12.000000 35.000000 6.000000 13.000000 35.000000 6.000000 11.000000 36.000000 6.000000 12.000000 36.000000 6.000000 10.000000 37.000000 6.000000 11.000000 37.000000 6.000000 12.000000 37.000000 6.000000 11.000000 38.000000 6.000000 25.000000 39.000000 6.000000 16.000000 50.000000 6.000000 17.000000 50.000000 6.000000 19.000000 50.000000 6.000000 20.000000 50.000000 6.000000 21.000000 50.000000 6.000000 15.000000 51.000000 6.000000 16.000000 51.000000 6.000000 17.000000 51.000000 6.000000 18.000000 51.000000 6.000000 19.000000 51.000000 6.000000 20.000000 51.000000 6.000000 21.000000 51.000000 6.000000 16.000000 52.000000 6.000000 16.000000 52.999900 6.000000 11.000000 35.000000 7.000000 26.000000 35.000000 7.000000 27.000000 35.000000 7.000000 11.000000 36.000000 7.000000 26.000000 36.000000 7.000000 27.000000 36.000000 7.000000 10.000000 37.000000 7.000000 11.000000 37.000000 7.000000 11.000000 38.000000 7.000000 9.000000 39.000000 7.000000 8.000000 40.000000 7.000000 9.000000 40.000000 7.000000 9.000000 41.000000 7.000000 9.000000 42.000000 7.000000 16.000000 49.000000 7.000000 17.000000 49.000000 7.000000 19.000000 49.000000 7.000000 20.000000 49.000000 7.000000 15.000000 50.000000 7.000000 16.000000 50.000000 7.000000 17.000000 50.000000 7.000000 18.000000 50.000000 7.000000 19.000000 50.000000 7.000000 20.000000 50.000000 7.000000 21.000000 50.000000 7.000000 15.000000 51.000000 7.000000 16.000000 51.000000 7.000000 17.000000 51.000000 7.000000 18.000000 51.000000 7.000000 19.000000 51.000000 7.000000 20.000000 51.000000 7.000000 21.000000 51.000000 7.000000 22.000000 51.000000 7.000000 14.000000 52.000000 7.000000 15.000000 52.000000 7.000000 16.000000 52.000000 7.000000 27.000000 36.000000 8.000000 10.000000 37.000000 8.000000 11.000000 37.000000 8.000000 12.000000 37.000000 8.000000 13.000000 37.000000 8.000000 10.000000 38.000000 8.000000 11.000000 38.000000 8.000000 12.000000 38.000000 8.000000 13.000000 38.000000 8.000000 13.000000 39.000000 8.000000 13.000000 40.000000 8.000000 14.000000 40.000000 8.000000 9.000000 42.000000 8.000000 10.000000 42.000000 8.000000 17.000000 48.000000 8.000000 18.000000 48.000000 8.000000 19.000000 48.000000 8.000000 15.000000 49.000000 8.000000 16.000000 49.000000 8.000000 17.000000 49.000000 8.000000 18.000000 49.000000 8.000000 19.000000 49.000000 8.000000 20.000000 49.000000 8.000000 21.000000 49.000000 8.000000 15.000000 50.000000 8.000000 16.000000 50.000000 8.000000 17.000000 50.000000 8.000000 18.000000 50.000000 8.000000 19.000000 50.000000 8.000000 20.000000 50.000000 8.000000 21.000000 50.000000 8.000000 14.000000 51.000000 8.000000 15.000000 51.000000 8.000000 16.000000 51.000000 8.000000 17.000000 51.000000 8.000000 18.000000 51.000000 8.000000 19.000000 51.000000 8.000000 20.000000 51.000000 8.000000 21.000000 51.000000 8.000000 22.000000 51.000000 8.000000 14.000000 52.000000 8.000000 15.000000 52.000000 8.000000 16.000000 52.000000 8.000000 21.000000 52.000000 8.000000 15.000000 52.999900 8.000000 22.000000 1.000000 9.000000 17.000000 22.000000 9.000000 20.000000 27.000000 9.000000 20.000000 28.000000 9.000000 27.000000 35.000000 9.000000 17.000000 36.000000 9.000000 18.000000 36.000000 9.000000 19.000000 36.000000 9.000000 20.000000 36.000000 9.000000 21.000000 36.000000 9.000000 26.000000 36.000000 9.000000 28.000000 36.000000 9.000000 9.000000 37.000000 9.000000 10.000000 37.000000 9.000000 11.000000 37.000000 9.000000 12.000000 37.000000 9.000000 13.000000 37.000000 9.000000 14.000000 37.000000 9.000000 15.000000 37.000000 9.000000 16.000000 37.000000 9.000000 17.000000 37.000000 9.000000 18.000000 37.000000 9.000000 19.000000 37.000000 9.000000 20.000000 37.000000 9.000000 21.000000 37.000000 9.000000 22.000000 37.000000 9.000000 27.000000 37.000000 9.000000 9.000000 38.000000 9.000000 10.000000 38.000000 9.000000 11.000000 38.000000 9.000000 12.000000 38.000000 9.000000 13.000000 38.000000 9.000000 14.000000 38.000000 9.000000 15.000000 38.000000 9.000000 16.000000 38.000000 9.000000 17.000000 38.000000 9.000000 18.000000 38.000000 9.000000 19.000000 38.000000 9.000000 20.000000 38.000000 9.000000 21.000000 38.000000 9.000000 22.000000 38.000000 9.000000 23.000000 38.000000 9.000000 13.000000 39.000000 9.000000 14.000000 39.000000 9.000000 15.000000 39.000000 9.000000 16.000000 39.000000 9.000000 17.000000 39.000000 9.000000 18.000000 39.000000 9.000000 19.000000 39.000000 9.000000 20.000000 39.000000 9.000000 21.000000 39.000000 9.000000 22.000000 39.000000 9.000000 23.000000 39.000000 9.000000 24.000000 39.000000 9.000000 13.000000 40.000000 9.000000 14.000000 40.000000 9.000000 15.000000 40.000000 9.000000 16.000000 40.000000 9.000000 17.000000 40.000000 9.000000 18.000000 40.000000 9.000000 19.000000 40.000000 9.000000 20.000000 40.000000 9.000000 21.000000 40.000000 9.000000 22.000000 40.000000 9.000000 23.000000 40.000000 9.000000 24.000000 40.000000 9.000000 12.000000 41.000000 9.000000 13.000000 41.000000 9.000000 14.000000 41.000000 9.000000 15.000000 41.000000 9.000000 16.000000 41.000000 9.000000 17.000000 41.000000 9.000000 18.000000 41.000000 9.000000 19.000000 41.000000 9.000000 20.000000 41.000000 9.000000 21.000000 41.000000 9.000000 22.000000 41.000000 9.000000 23.000000 41.000000 9.000000 24.000000 41.000000 9.000000 25.000000 41.000000 9.000000 26.000000 41.000000 9.000000 27.000000 41.000000 9.000000 28.000000 41.000000 9.000000 12.000000 42.000000 9.000000 13.000000 42.000000 9.000000 14.000000 42.000000 9.000000 15.000000 42.000000 9.000000 16.000000 42.000000 9.000000 17.000000 42.000000 9.000000 18.000000 42.000000 9.000000 19.000000 42.000000 9.000000 20.000000 42.000000 9.000000 21.000000 42.000000 9.000000 22.000000 42.000000 9.000000 23.000000 42.000000 9.000000 24.000000 42.000000 9.000000 25.000000 42.000000 9.000000 26.000000 42.000000 9.000000 27.000000 42.000000 9.000000 28.000000 42.000000 9.000000 12.000000 43.000000 9.000000 13.000000 43.000000 9.000000 14.000000 43.000000 9.000000 15.000000 43.000000 9.000000 16.000000 43.000000 9.000000 17.000000 43.000000 9.000000 18.000000 43.000000 9.000000 19.000000 43.000000 9.000000 20.000000 43.000000 9.000000 21.000000 43.000000 9.000000 22.000000 43.000000 9.000000 23.000000 43.000000 9.000000 24.000000 43.000000 9.000000 25.000000 43.000000 9.000000 26.000000 43.000000 9.000000 27.000000 43.000000 9.000000 13.000000 44.000000 9.000000 14.000000 44.000000 9.000000 15.000000 44.000000 9.000000 16.000000 44.000000 9.000000 17.000000 44.000000 9.000000 18.000000 44.000000 9.000000 19.000000 44.000000 9.000000 20.000000 44.000000 9.000000 21.000000 44.000000 9.000000 22.000000 44.000000 9.000000 23.000000 44.000000 9.000000 24.000000 44.000000 9.000000 25.000000 44.000000 9.000000 14.000000 45.000000 9.000000 15.000000 45.000000 9.000000 16.000000 45.000000 9.000000 17.000000 45.000000 9.000000 18.000000 45.000000 9.000000 19.000000 45.000000 9.000000 20.000000 45.000000 9.000000 21.000000 45.000000 9.000000 22.000000 45.000000 9.000000 23.000000 45.000000 9.000000 13.000000 46.000000 9.000000 14.000000 46.000000 9.000000 15.000000 46.000000 9.000000 16.000000 46.000000 9.000000 17.000000 46.000000 9.000000 18.000000 46.000000 9.000000 19.000000 46.000000 9.000000 20.000000 46.000000 9.000000 13.000000 47.000000 9.000000 15.000000 47.000000 9.000000 18.000000 48.000000 9.000000 19.000000 48.000000 9.000000 20.000000 48.000000 9.000000 21.000000 48.000000 9.000000 14.000000 49.000000 9.000000 15.000000 49.000000 9.000000 16.000000 49.000000 9.000000 17.000000 49.000000 9.000000 18.000000 49.000000 9.000000 19.000000 49.000000 9.000000 20.000000 49.000000 9.000000 21.000000 49.000000 9.000000 22.000000 49.000000 9.000000 14.000000 50.000000 9.000000 15.000000 50.000000 9.000000 16.000000 50.000000 9.000000 17.000000 50.000000 9.000000 18.000000 50.000000 9.000000 19.000000 50.000000 9.000000 20.000000 50.000000 9.000000 21.000000 50.000000 9.000000 22.000000 50.000000 9.000000 14.000000 51.000000 9.000000 15.000000 51.000000 9.000000 16.000000 51.000000 9.000000 17.000000 51.000000 9.000000 18.000000 51.000000 9.000000 19.000000 51.000000 9.000000 20.000000 51.000000 9.000000 21.000000 51.000000 9.000000 22.000000 51.000000 9.000000 14.000000 52.000000 9.000000 15.000000 52.000000 9.000000 18.000000 52.000000 9.000000 19.000000 52.000000 9.000000 21.000000 52.000000 9.000000 22.000000 52.000000 9.000000 14.000000 52.999900 9.000000 15.000000 52.999900 9.000000 19.000000 52.999900 9.000000 21.000000 52.999900 9.000000 22.000000 52.999900 9.000000 14.000000 1.000000 10.000000 20.000000 4.000000 10.000000 21.000000 10.000000 10.000000 17.000000 21.000000 10.000000 13.000000 22.000000 10.000000 14.000000 22.000000 10.000000 17.000000 22.000000 10.000000 13.000000 23.000000 10.000000 14.000000 23.000000 10.000000 15.000000 23.000000 10.000000 16.000000 23.000000 10.000000 17.000000 23.000000 10.000000 20.000000 23.000000 10.000000 23.000000 23.000000 10.000000 12.000000 24.000000 10.000000 13.000000 24.000000 10.000000 14.000000 24.000000 10.000000 15.000000 24.000000 10.000000 16.000000 24.000000 10.000000 17.000000 24.000000 10.000000 18.000000 24.000000 10.000000 19.000000 24.000000 10.000000 20.000000 24.000000 10.000000 21.000000 24.000000 10.000000 22.000000 24.000000 10.000000 23.000000 24.000000 10.000000 24.000000 24.000000 10.000000 12.000000 25.000000 10.000000 13.000000 25.000000 10.000000 14.000000 25.000000 10.000000 15.000000 25.000000 10.000000 16.000000 25.000000 10.000000 17.000000 25.000000 10.000000 18.000000 25.000000 10.000000 19.000000 25.000000 10.000000 20.000000 25.000000 10.000000 21.000000 25.000000 10.000000 22.000000 25.000000 10.000000 23.000000 25.000000 10.000000 24.000000 25.000000 10.000000 1
[...]
POINT_DATA 4667
VECTORS vector_field float
0.709350 2.002338 -0.030304 0.601925 1.923551 -0.994790 2.385669 1.263995 0.143585 3.393767 0.204015 -0.755348 1.948450 0.945465 -0.848448 2.370034 1.690217 -0.537915 1.512204 1.277462 -0.429167 3.158913 1.196302 -0.509079 2.310270 1.094815 -0.494943 3.117027 1.484204 -0.565884 2.880289 0.622890 -0.573013 1.919375 0.563170 -0.617323 -0.763090 2.867465 -1.928554 4.723110 -0.981036 -1.321858 -1.958920 2.999900 -0.265432 -2.389774 2.999900 -0.191733 2.425287 2.999900 0.139689 1.129369 2.999900 -0.464628 1.401390 0.123320 -1.530711 -1.046042 1.999900 -0.655665 -2.540786 1.999900 -0.089684 0.469203 1.999900 0.357671 -0.092019 1.999900 0.412797 -0.832554 1.999900 0.344026 1.577337 1.999900 0.166925 0.836459 1.999900 0.152664 -2.574878 0.999900 -0.128444 -2.622310 0.000000 -0.030704 2.659304 2.683365 -0.426229 4.585844 0.321373 2.603103 3.280247 0.865426 1.998261 3.455107 0.975533 -1.193857 3.073205 -1.407642 1.666001 3.703767 -0.111097 1.408104 0.192372 -3.551866 -0.942168 -0.808973 -3.549911 -0.943326 -0.504159 0.719887 -2.987754 0.903332 1.846230 -2.779330 1.168894 2.223915 -1.074361 0.964679 0.975538 -2.876257 0.962279 0.033617 -2.860034 0.955303 -0.930457 -2.832854 -0.410584 -0.462820 -2.028505 -2.576226 3.999900 -0.864868 -0.495277 3.999900 -0.672155 1.099898 3.999900 -0.957271 -1.135971 2.999900 -1.338782 -2.457763 2.999900 -0.989145 0.243227 2.999900 -0.535611 -0.518698 2.999900 -0.406614 -1.058933 2.999900 -0.419309 1.504718 2.999900 -0.583104 0.768324 2.999900 -0.769082 -1.612056 1.999900 -1.258010 -2.419698 1.999900 -0.973374 0.325542 1.999900 -0.435331 -0.399479 1.999900 -0.378115 -1.063593 1.999900 -0.415761 1.448583 1.999900 -0.432301 0.762750 1.999900 -0.699013 1.639531 1.416714 -0.430968 -0.121363 0.999900 -1.804033 -1.641715 0.999900 -1.035790 -2.383041 0.999900 -0.964357 3.886650 -1.201301 1.699089 0.197302 -3.557017 -1.938961 -0.804316 -3.555311 -1.940044 -1.955048 -1.135204 -0.313533 1.579332 0.109408 -2.239593 0.260739 -4.338263 -1.901827 -0.822911 -3.966770 -1.805370 -1.826189 -4.531399 -1.953936 1.521588 -0.906777 -1.982139 -2.634041 -5.532745 -1.836644 -1.724041 -0.908847 -3.706124 -1.861100 -2.220295 -0.943450 -1.273667 0.286333 -1.663985 -0.050083 -0.964602 -3.835476 -0.287225 2.201902 -0.924644 0.266978 -1.158379 -1.769135 0.678536 2.240889 -1.125136 -0.661073 3.999900 -1.798728 -0.526207 1.463658 -1.856019 -1.071221 0.199861 -2.590836 -1.745567 3.999900 -1.716653 -0.451803 3.999900 -1.575896 1.282123 3.999900 -1.628250 0.115565 3.999900 -1.355608 -1.075160 2.999900 -1.953937 -2.188260 2.999900 -1.963006 -2.736912 2.999900 -1.894941 -0.590056 2.999900 -1.379543 -1.054758 2.999900 -1.382359 1.452149 2.999900 -1.548433 0.607114 2.999900 -1.527317 -0.390882 1.999900 -1.600647 -1.095113 1.999900 -1.953307 -2.101003 1.999900 -1.959475 -2.808600 1.999900 -1.921151 -0.500474 1.999900 -1.165830 -1.035566 1.999900 -1.224652 1.407699 1.999900 -1.240422 0.671512 1.999900 -1.568978 1.255795 1.999900 0.206552 0.013758 0.999900 -1.929325 -1.178895 0.999900 -1.950649 -1.842189 0.999900 -1.932274 0.708405 0.999900 -1.615075 -1.142882 0.000000 -1.951850 1.529027 1.110121 0.701977 -7.057599 -2.965746 6.848353 8.810306 -4.281106 8.945357 8.871687 -4.421668 7.824303 1.844230 -1.157281 -0.261485 -4.869344 -1.603573 8.259635 -2.081540 -1.285377 6.736461 -0.517381 -1.093561 7.107412 2.735420 -1.631665 5.106595 4.601442 -2.705588 4.902805 2.431781 -1.765019 -0.345510 2.841928 -1.403968 0.860316 -2.583857 -4.415866 2.416855 -3.427627 -4.706475 2.416057 -4.521306 -4.659869 2.411517 -5.397575 -5.176787 2.342636 -5.985907 -6.328248 2.177661 -6.585192 -4.543350 6.778361 -1.262088 -3.347394 12.326420 -3.131699 -3.025940 10.934205 -4.860609 -2.377120 8.529905 -2.604854 -1.706493 6.521636 -0.696793 -1.550713 7.036716 1.167120 -2.092798 5.887025 3.695523 -2.802330 7.208293 3.378277 -3.074971 10.955179 1.764769 -2.710891 -0.243610 1.166840 -4.502370 -2.963691 0.116287 -4.432453 -2.987133 -0.829149 -4.530759 -2.954709 -5.183464 -6.014326 2.390965 -6.327061 -6.862847 2.398703 -5.540423 -4.273679 8.690766 -2.473715 -3.890297 11.347103 -3.711532 -3.639096 10.112310 -4.420287 -2.735644 6.391428 -1.699423 -0.992360 5.791023 -1.138549 -1.109828 6.447064 -0.150018 -1.362264 6.366935 3.262457 -3.458866 5.885219 3.044690 -3.727572 7.858213 6.158613 -5.749502 3.399425 -6.369501 -7.052096 3.215884 -5.192032 -4.707319 8.112575 -5.001979 -4.411960 6.112615 -5.447897 -4.061734 5.145123 -4.008427 -3.159987 4.607332 -1.917415 -1.085267 4.020933 -1.425389 -1.278025 4.226800 -1.029707 -1.299905 6.237681 2.978418 -3.844887 4.130349 4.135744 -5.221778 3.155468 5.522452 -6.052716 3.435692 6.948324 -3.628177 0.394845 -6.137884 -6.647237 4.523777 -5.223416 -5.330260 6.628419 -5.761856 -5.033274 4.493645 -4.728445 -4.640369 4.426049 -1.417014 -1.493692 4.906576 -1.139979 -1.456412 4.237524 -1.271923 -1.668168 6.196975 -1.380782 -1.702191 5.457672 1.374248 -2.794311 2.265820 3.862535 -4.543477 3.675427 5.358509 -5.195915 3.900949 7.760228 -1.230578 -2.401056 -2.033936 0.011352 -4.878633 -3.174670 -6.665679 -2.650689 -5.584823 -5.970813 4.030307 -5.207080 -5.813019 4.259351 -4.191681 -5.116693 3.661004 -3.365285 -3.756160 2.392072 -1.073352 -2.145254 4.095135 -1.297896 -2.295943 4.749301 -1.075249 -2.220489 3.553802 0.164903 -2.232199 2.570155 3.253517 -4.204203 3.639548 5.181716 -5.603412 3.844594 5.742651 -2.701743 -4.624633 6.668082 -2.554850 -2.649562 5.119445 -4.833444 -1.249950 3.816946 -5.087741 -1.519012 2.848163 -5.070626 -1.490205 -2.035791 -0.975351 -4.868298 -1.587232 -3.256245 -4.248316 -4.336931 -6.609731 -1.648102 -4.270598 -6.158648 4.064477 -3.745130 -5.343250 3.516542 -1.387475 -2.605478 3.729036 -1.020469 -2.629527 4.661655 -1.012084 -2.599865 4.171595 -1.203014 -2.733456 3.834790 -0.841860 -2.728177 3.193918 1.715231 -4.298491 2.138236 4.049186 -5.104953 1.831249 5.801412 -3.385166 -5.070485 4.709147 -3.536124 -4.894647 5.651078 -3.442583 -3.259114 3.940670 -4.791967 -1.744259 3.040181 -4.812984 -1.730837 -2.084404 -1.881880 -4.743572 -3.048933 -1.968113 -4.836723 -4.367917 -7.589356 -1.618033 -3.496169 -6.034465 3.263357 -2.821367 -4.377106 2.125939 -1.408820 -3.146451 3.149174 -0.941948 -3.031195 3.480297 -0.866932 -3.178588 3.765445 -1.016566 -3.186462 3.322048 -0.049301 -2.950232 1.851634 1.000119 -4.283629 1.430901 3.516647 -4.766146 1.543445 5.879070 -3.981176 -5.183034 4.878048 -4.317688 -5.147131 3.873740 -4.316902 -5.147069 2.803887 -4.553108 -4.826932 -3.918168 -1.666109 -2.803792 -4.192254 -5.154886 0.491496 -3.727579 -5.312838 1.913929 -2.313876 -4.673445 1.322177 -1.256764 -3.378376 1.620341 -0.301918 -3.313158 2.399295 -0.507669 -3.706146 3.189203 -0.147111 -3.145831 2.044266 0.168193 -3.268873 0.841827 0.503631 -3.823541 0.516324 3.637058 -4.879358 1.382893 3.258238 -3.942777 1.682948 0.428934 -0.373788 -1.921144 -2.177092 -2.798683 -0.250028 -3.544766 -5.190932 0.899036 -0.517574 -3.236495 0.768449 -0.503211 -3.061508 0.806981 -0.507606 -3.554745 1.839851 -0.523277 -3.879855 2.799550 0.512793 -3.221593 0.992481 0.270267 -3.243934 0.074003 1.285703 -4.203337 0.651879 2.007176 -2.819006 0.551153 -0.968893 -0.312758 -1.858177 -1.156338 -1.659721 -0.657446 -2.784155 -4.625536 1.042946 0.285548 -2.712305 -0.262523 0.118483 -2.476667 -0.331767 -0.145571 -2.780855 0.737799 0.152976 -2.751381 0.561636 0.136025 -2.832313 -0.205572 -1.233273 2.226322 -1.546770 -0.439433 -2.138246 -0.269514 0.346618 2.833168 -1.765532 0.595591 2.663671 -2.048674 0.028373 1.984825 -1.409871 -0.206942 3.930100 -2.052292 -2.339487 1.659973 -1.369459 -0.131305 3.999900 -2.223721 -0.736624 3.999900 -1.977966 -1.249570 3.999900 -2.175674 -0.008683 3.999900 -2.211552 0.729104 3.999900 -2.160487 1.181880 3.999900 -2.419506 0.405436 3.999900 -2.395740 0.935583 0.502245 -1.753117 -0.419913 2.221160 -1.548053 -0.658367 2.999900 -2.738384 -1.778908 2.999900 -2.894139 -2.146325 2.999900 -2.514300 -0.473911 2.999900 -2.319023 -0.795671 2.999900 -2.384184 1.373042 2.999900 -2.402153 0.541333 2.999900 -2.363225 1.742762 1.161692 -1.681797 0.127953 1.999900 -2.268257 -0.762774 1.999900 -2.874255 -1.622463 1.999900 -2.785953 -1.261661 1.999900 -1.048436 -0.572290 1.999900 -1.755530 -0.795275 1.999900 -1.947061 1.055594 1.999900 -1.759097 0.561241 1.999900 -2.348117 -0.297889 1.999900 -2.428746 0.431886 0.999900 -2.634251 -0.846778 0.999900 -2.925848 -0.476416 0.999900 -1.850544 -0.929024 0.999900 -1.973209 0.566833 0.999900 -2.374853 -0.209416 0.999900 -2.438796 0.477280 0.000000 -2.631139 -0.859821 0.000000 -2.934797 -0.849859 0.000000 -2.025921 0.583089 0.000000 -2.346159 -0.336582 0.000000 -2.472179 2.071338 0.017366 -0.008770 0.548106 1.949180 0.912858 -0.527147 -0.576915 3.708931 -4.771474 -4.943466 7.774870 -4.635461 -1.483704 6.082669 -5.545175 -1.573883 6.091634 -4.496192 -6.279284 8.594329 -4.711242 -2.396459 6.069537 -5.672856 -2.442272 6.077667 -6.607856 -2.512269 6.086555 -6.798186 -3.435294 5.805059 -4.391423 -7.324229 8.903716 7.018648 -4.532023 7.532734 4.750672 -3.523163 7.610640 -3.878520 -1.836775 5.031032 -4.821769 -3.189409 6.020079 -5.744925 -3.352703 6.060176 -6.687197 -3.425708 6.074772 -6.686567 -4.550671 5.798164 -4.543056 -8.095232 8.496931 1.916982 -11.181629 11.665120 4.888114 -8.344100 8.528023 7.055039 -5.452488 7.609478 7.101991 -3.657232 7.874639 6.097447 -3.666789 7.870785 5.207905 -3.422148 7.967986 4.550751 -2.420056 8.212005 -3.724938 3.285827 -0.149091 -4.866354 -3.251702 5.263951 -5.785989 -3.839494 5.856491 -6.810561 -4.228714 6.029144 -7.263868 -4.826112 6.047047 -5.785378 -7.856557 6.512292 2.086310 -11.228098 10.567357 7.939892 -6.568232 7.492458 7.755962 -5.511632 7.612985 7.611051 -3.273478 8.199487 6.804368 -2.802754 8.116222 5.853302 -2.569217 8.051129 4.922305 -1.815446 7.780578 -3.904176 1.672024 1.472624 -4.974761 0.341390 2.735007 -6.005425 -2.475652 4.130692 -6.828447 -5.150167 6.010712 -7.699041 -5.411244 6.072517 -3.444988 -8.689780 6.526514 5.846012 -8.708490 6.492995 8.521937 -6.865047 7.588937 8.622701 -4.244880 8.196207 7.860882 -3.435025 8.018554 6.762337 -0.963047 5.946691 5.985812 0.990177 5.463165 -4.139752 1.294991 -0.744124 -6.878147 -4.826718 5.030440 -7.826253 -6.038089 5.975598 -8.388873 -6.663916 6.016825 6.507207 -8.198088 5.290423 9.725591 -5.003619 8.123736 8.858061 -4.520321 8.039746 7.966662 -3.638229 7.666850 -6.967040 -3.897081 3.822113 -7.931369 -3.263961 3.493935 -8.767652 -6.883200 5.787717 4.020969 -7.269097 2.464782 9.751894 -5.505207 7.981928 8.949164 -4.725130 7.727832 8.806561 -2.694537 5.870112 -7.919315 -2.678478 2.521499 -8.788443 -6.263269 4.300674 7.690781 -5.161032 2.887890 8.919548 -6.031689 4.970335 9.804319 -3.292392 5.805322 6.765354 -1.438956 0.100297 -7.836090 -3.905828 2.496519 -6.438866 -5.732410 1.948771 6.513873 -3.968569 1.142932 7.644201 -5.142160 2.810534 7.319321 -5.128867 3.185801 7.067597 -1.313754 -0.127652 0.692504 -1.955891 0.905510 5.752285 -3.536298 0.997002 7.263961 -3.678135 1.638693 7.126225 -3.790439 2.502695 -3.169140 -4.321342 -0.579767 -3.469587 -3.779242 -0.585578 -2.136797 -2.584500 -0.457211 -1.610506 -3.386622 1.391165 -2.686795 -3.497150 1.357750 -3.643287 -3.568223 1.355342 -4.485764 -3.985439 1.280706 -4.840055 -5.230981 1.214847 -5.712709 -5.374393 1.246292 -5.991906 -4.959329 0.805601 -4.745719 -2.976849 8.824416 -3.278107 -2.668370 9.980875 -4.582545 -2.079230 8.962558 -1.912689 -1.239504 7.673949 0.158330 -1.126785 7.402349 4.401415 -2.221794 5.453246 4.141423 -3.481865 1.366669 3.817541 -2.784431 11.676832 3.509364 -2.556105 -1.331056 5.067500 -2.453983 -0.964109 2.646698 -2.394940 0.526594 2.662957 -0.876338 -0.544048 2.265933 -1.057066 1.437727 2.376598 -2.704301 1.583424 1.989959 -1.361401 -0.173454 -1.667927 -4.467790 1.385147 -2.693706 -4.498149 1.380646 -3.690879 -4.510558 1.379968 -4.694004 -4.562075 1.359851 -5.611656 -4.927820 1.339013 -5.950802 -6.438820 1.202885 -6.989897 -5.873009 5.008115 -0.480558 -2.652648 12.378820 -2.193300 -3.854789 11.269480 -3.900711 -2.991360 10.045398 -0.695399 0.119695 9.756708 -0.842929 1.412284 9.916700 -1.108228 -0.348024 9.849475 2.744309 -3.078012 10.366801 3.344332 -3.440883 11.958934 6.378256 -5.086424 4.767103 6.493766 -4.815967 1.813570 2.172914 -1.817480 -0.687139 1.525517 -1.967794 -0.746829 -2.616011 -5.471745 1.436068 -3.556037 -5.551657 1.455374 -4.671569 -5.605292 1.433863 -5.727225 -5.870977 1.640641 -6.417409 -6.839779 1.462508 -6.691388 -5.250588 7.029591 -1.100802 -2.361797 11.898131 -2.545981 -3.100152 10.663925 0.339093 0.891127 9.621415 -0.269426 1.010371 9.597412 -0.915037 1.026942 9.605699 -1.568866 1.008771 9.676901 -1.972788 0.043212 10.018736 2.652646 -4.049577 11.346616 3.695062 -4.219277 9.859469 7.027962 -5.017051 2.270937 1.739624 -3.254739 -2.348967 1.482239 -3.178817 -1.667863 3.117966 -3.341214 2.060002 -2.145308 -6.374164 1.475772 -3.029097 -5.304637 1.685809 -4.007737 -5.178576 1.694223 -5.552240 -6.697911 1.455504 -6.609052 -7.150101 1.693141 -4.724553 -4.234731 9.232296 0.506190 -0.735256 9.413264 0.545156 -0.235216 9.464698 0.341055 0.214280 9.498619 -0.234516 0.231407 9.514141 -0.891296 0.237381 9.532644 -1.612791 0.243794 9.555712 -2.237558 0.234877 9.646131 -0.919668 -2.305275 8.514788 2.724593 -4.784105 9.506642 7.061162 -5.609042 2.792015 3.910811 -4.714813 -1.307047 3.594716 -3.697423 -0.377681 3.086411 -3.144782 -1.854280 -0.811121 -4.694743 -2.960801 -0.852982 -6.121716 -3.900058 -1.783853 -6.544081 -3.933297 -6.553081 -6.986704 4.528877 -3.905712 -4.250252 9.770787 1.011906 -1.078555 9.474838 0.828244 -0.815173 9.408289 0.298042 -0.648505 9.419038 -0.240850 -0.611606 9.450666 -0.876283 -0.596212 9.477968 -1.640775 -0.600370 9.490555 -2.307539 -0.638991 9.535906 -2.140806 -1.392657 9.399256 3.962444 -5.767939 5.598584 6.642693 -6.294273 3.051892 5.307734 -4.273819 -0.667121 4.972512 -4.101034 -2.216015 -0.723358 -3.779201 -1.647236 -1.360660 -4.641481 -1.908466 -1.636778 -2.033590 -5.237701 -1.435152 -1.846755 -5.761833 -6.324463 -6.744811 6.494012 -3.403272 -4.422026 9.648671 0.717266 -1.971157 9.104715 0.926678 -1.583299 9.337515 0.338519 -1.506720 9.358348 -0.187512 -1.459507 9.403894 -0.865503 -1.496196 9.440729 -1.686561 -1.511793 9.451538 -2.448966 -1.477221 9.460112 -2.429462 -1.794931 9.201751 5.273842 -6.943174 2.801109 8.804090 -0.247799 -0.152115 5.819656 -5.115862 -2.440256 4.785517 -5.117546 -2.480064 3.764847 -5.123569 -2.515243 2.771307 -5.118414 -2.499577 3.052574 1.712345 5.814453 -2.447118 -1.362910 -0.855278 -1.560121 -2.098504 -2.520103 -1.714589 -0.803338 -3.273687 -1.036905 -1.003168 -5.879792 -2.033580 -1.016307 -5.882419 -5.916794 -6.738595 6.937462 -4.061051 -5.560868 7.305792 0.939478 -2.715739 9.083524 0.858183 -2.454905 9.232410 0.277595 -2.389294 9.262423 -0.249885 -2.350654 9.332435 -0.888960 -2.338534 9.378613 -1.698865 -2.394568 9.400384 -2.473268 -2.356355 9.403304 -2.453265 -2.543568 8.892681 5.024193 -6.272134 2.880577 4.315668 -4.946515 2.176431 5.796161 -6.105878 -2.533010 4.806687 -6.095748 -2.526812 4.042825 -5.972427 -2.341995 2.835976 -6.078027 -2.500505 2.316172 -5.943909 -1.977088 -3.803085 -2.203618 -0.931264 -2.392584 -1.056263 -3.436273 -1.660347 -0.767385 -4.071108 -2.040760 -1.976495 -5.859040 -3.028136 -2.050636 -5.862624 -5.311668 -6.992048 5.205270 -0.590769 -4.022092 7.372523 0.517630 -3.400844 8.793780 0.055595 -3.296750 8.960592 -0.351343 -3.244213 9.131350 -1.037872 -3.320006 8.880859 -1.677955 -3.400918 8.242377 -2.324633 -3.339587 8.302390 -2.370444 -3.336110 6.992278 4.142446 -5.763975 2.484295 6.071999 -4.353328 -4.777116 5.984674 -7.008168 -2.380252 5.111337 -6.925608 -2.261307 3.994849 -5.852903 -2.652706 1.959357 -4.492289 -5.423433 -3.364244 -1.040823 -0.658333 -4.507737 -3.271081 -0.776143 -3.147193 -1.728961 -3.663179 -3.469787 -1.791309 -3.815235 -4.500443 -8.139232 -1.636714 -4.069179 -8.327849 -1.009108 -0.504574 -4.522771 5.967308 -0.056069 -4.140186 6.942599 -0.238518 -3.948319 7.298274 -0.642312 -3.941597 7.496503 -1.187564 -3.835732 6.279015 -1.580278 -3.822118 5.581710 -1.940473 -3.806607 5.056599 0.441620 -3.059059 0.515334 4.170851 -5.928446 1.518538 5.789700 -5.452553 -5.988836 4.705342 -5.587542 -5.830816 5.343004 -6.095909 -3.405792 2.622484 1.441922 -1.601640 1.811383 1.221048 -1.329113 -1.534232 0.803140 -1.371685 -2.199718 0.664176 -1.499827 -3.352075 -2.725628 -2.508144 -5.281968 -5.599375 0.630450 -3.658632 -6.606112 -1.282099 -4.759455 -6.791219 -0.461631 -0.792968 -4.002765 2.755449 -0.229153 -4.418800 4.484359 -0.259696 -4.224728 4.839110 -0.600576 -4.193207 5.102219 -1.016032 -4.153284 4.703433 -1.320701 -4.025078 3.525395 0.475527 -2.958153 0.437702 2.475971 -4.059775 0.161298 2.973225 -3.351366 0.138957 3.542367 -5.222950 1.687043 6.416577 -5.498537 -4.585291 2.493216 0.722848 -1.331520 1.742368 0.931701 -0.985742 -1.245254 1.051789 -1.412704 -1.663630 1.195499 -1.549636 -5.046317 -6.296725 0.526010 -4.218580 -6.009849 -0.223612 -4.599416 -6.435765 -0.251124 -3.265453 -5.606197 0.952747 -0.274694 -3.691272 2.336227 -0.271701 -4.016331 2.975320 -0.562905 -4.122627 3.179330 -0.688117 -3.901455 2.734377 -0.545841 -3.384740 1.252915 0.776197 -3.123100 -0.421699 0.675393 -2.377469 -0.961505 0.681199 -2.277092 -0.894897 -4.789540 -6.100246 0.075655 -4.876300 -6.149879 0.442746 -1.021747 -2.606355 0.255432 -0.308484 -2.094878 0.301653 -0.288955 -2.109741 0.216868 -0.019833 -2.163936 -0.018027 -1.042163 1.957728 -1.363314 -1.543754 -1.007835 -1.635647 -2.247758 -5.083164 0.214975 0.074172 1.192499 -1.745815 0.066761 2.114921 -2.215362 0.056932 4.999900 -2.658797 0.365429 1.939451 -1.989352 1.669053 1.618301 -1.792088 -1.794006 1.294836 -1.554076 0.049747 3.999900 -2.656394 -0.851745 3.999900 -2.821793 -1.671330 3.999900 -2.836433 -0.367286 3.999900 -2.756363 0.575455 3.999900 -2.684639 1.095830 3.999900 -2.990290 0.382366 3.999900 -3.134253 1.938693 0.151491 -3.342893 2.819517 1.247338 -1.389018 -1.921270 1.842655 -0.775074 -0.574147 2.999900 -3.589989 -1.320281 2.999900 -3.543103 -1.614272 2.999900 -2.188742 -0.594004 2.999900 -2.724858 -0.744573 2.999900 -2.954393 1.210486 2.999900 -3.049913 0.632308 2.999900 -3.320731 1.731057 0.501185 -2.280433 2.807985 1.166616 -0.834031 0.858222 1.999900 -2.173030 -0.485945 1.999900 -3.647184 -0.812835 1.999900 -2.744374 -1.093129 1.999900 -1.682113 -0.768601 1.999900 -2.331991 -0.634182 1.999900 -2.694434 0.576558 1.999900 -2.061220 0.598843 1.999900 -3.226863 0.547377 1.999900 -2.310555 -0.547683 0.999900 -3.711925 -0.702140 0.999900 -1.997743 -0.698746 0.999900 -1.850524 -0.705626 0.999900 -2.442404 -0.809002 0.999900 -2.752852 0.626758 0.999900 -3.148788 0.567140 0.999900 -2.245791 -0.543597 0.000000 -3.708333 -0.745546 0.000000 -2.273048 0.156189 0.000000 -2.770460 1.794031 2.572580 0.593012 -0.305696 1.017919 1.992114 0.954622 1.518655 1.591587 0.514480 2.042205 1.924584 0.316018 1.709202 1.398551 1.056529 0.104209 2.276556 0.447791 1.017615 2.069457 0.355979 1.443227 2.237167 -0.364443 1.117065 2.055649 0.970565 0.527565 2.084558 1.052665 0.106861 3.116362 -0.247872 0.563139 2.429668 -0.742509 0.726329 2.398796 0.891864 0.744486 2.410099 1.335989 0.402441 3.871572 0.209476 0.754790 4.254426 -0.745192 0.859937 4.026409 -0.358859 0.274684 4.276619 -1.218719 0.221085 3.973921 0.522937 -0.551132 4.271973 -0.502882 -0.427787 4.094848 0.042162 -1.901154 6.041158 -0.545035 -1.972880 7.131690 -3.577856 -5.756499 9.416891 -2.577267 -6.689424 9.016741 -2.490835 -7.006444 11.693401 3.137572 -5.770878 9.572718 -2.456591 -7.379372 8.843628 -3.839540 -4.001972 10.085706 2.869777 -5.885060 9.741499 1.996613 -6.960401 8.983054 -3.402647 -4.556471 8.273454 -4.536402 -4.283182 9.646973 2.892137 -5.753091 9.629460 1.755076 -6.021192 8.841981 5.828460 -0.675183 6.399458 -5.987915 -1.086110 4.871011 -4.711891 -3.956540 6.304364 -2.772197 -6.059465 11.368042 3.315453 -6.385014 9.676500 4.707128 -3.714896 7.205742 5.978430 -1.596604 6.447197 5.024273 -1.520396 6.544280 -5.993117 -2.061601 4.883262 -4.802651