# vtk DataFile Version 2.0
VTK from Matlab
ASCII
DATASET STRUCTURED_GRID
DIMENSIONS 17338 1 1
POINTS 17338 float
10.000000 34.000000 3.000000 11.000000 34.000000 3.000000 12.000000 34.000000 3.000000 9.000000 35.000000 3.000000 13.000000 35.000000 3.000000 8.000000 36.000000 3.000000 13.000000 36.000000 3.000000 8.000000 37.000000 3.000000 13.000000 37.000000 3.000000 7.000000 38.000000 3.000000 13.000000 38.000000 3.000000 25.000000 38.000000 3.000000 26.000000 38.000000 3.000000 27.000000 38.000000 3.000000 28.000000 38.000000 3.000000 7.000000 39.000000 3.000000 13.000000 39.000000 3.000000 24.000000 39.000000 3.000000 29.000000 39.000000 3.000000 7.000000 40.000000 3.000000 12.000000 40.000000 3.000000 13.000000 40.000000 3.000000 24.000000 40.000000 3.000000 29.000000 40.000000 3.000000 6.000000 41.000000 3.000000 12.000000 41.000000 3.000000 24.000000 41.000000 3.000000 29.000000 41.000000 3.000000 6.000000 42.000000 3.000000 11.000000 42.000000 3.000000 25.000000 42.000000 3.000000 26.000000 42.000000 3.000000 27.000000 42.000000 3.000000 28.000000 42.000000 3.000000 7.000000 43.000000 3.000000 8.000000 43.000000 3.000000 9.000000 43.000000 3.000000 10.000000 43.000000 3.000000 26.000000 30.000000 4.000000 27.000000 30.000000 4.000000 28.000000 30.000000 4.000000 8.000000 31.000000 4.000000 9.000000 31.000000 4.000000 10.000000 31.000000 4.000000 11.000000 31.000000 4.000000 12.000000 31.000000 4.000000 13.000000 31.000000 4.000000 24.000000 31.000000 4.000000 25.000000 31.000000 4.000000 26.000000 31.000000 4.000000 28.000000 31.000000 4.000000 7.000000 32.000000 4.000000 14.000000 32.000000 4.000000 23.000000 32.000000 4.000000 29.000000 32.000000 4.000000 7.000000 33.000000 4.000000 15.000000 33.000000 4.000000 23.000000 33.000000 4.000000 29.000000 33.000000 4.000000 7.000000 34.000000 4.000000 15.000000 34.000000 4.000000 23.000000 34.000000 4.000000 30.000000 34.000000 4.000000 7.000000 35.000000 4.000000 15.000000 35.000000 4.000000 23.000000 35.000000 4.000000 30.000000 35.000000 4.000000 7.000000 36.000000 4.000000 10.000000 36.000000 4.000000 11.000000 36.000000 4.000000 15.000000 36.000000 4.000000 23.000000 36.000000 4.000000 30.000000 36.000000 4.000000 6.000000 37.000000 4.000000 9.000000 37.000000 4.000000 10.000000 37.000000 4.000000 11.000000 37.000000 4.000000 15.000000 37.000000 4.000000 23.000000 37.000000 4.000000 31.000000 37.000000 4.000000 6.000000 38.000000 4.000000 9.000000 38.000000 4.000000 10.000000 38.000000 4.000000 11.000000 38.000000 4.000000 14.000000 38.000000 4.000000 15.000000 38.000000 4.000000 23.000000 38.000000 4.000000 31.000000 38.000000 4.000000 5.000000 39.000000 4.000000 6.000000 39.000000 4.000000 8.000000 39.000000 4.000000 9.000000 39.000000 4.000000 10.000000 39.000000 4.000000 11.000000 39.000000 4.000000 14.000000 39.000000 4.000000 23.000000 39.000000 4.000000 26.000000 39.000000 4.000000 27.000000 39.000000 4.000000 30.000000 39.000000 4.000000 31.000000 39.000000 4.000000 5.000000 40.000000 4.000000 8.000000 40.000000 4.000000 9.000000 40.000000 4.000000 10.000000 40.000000 4.000000 11.000000 40.000000 4.000000 14.000000 40.000000 4.000000 23.000000 40.000000 4.000000 26.000000 40.000000 4.000000 27.000000 40.000000 4.000000 28.000000 40.000000 4.000000 31.000000 40.000000 4.000000 5.000000 41.000000 4.000000 8.000000 41.000000 4.000000 9.000000 41.000000 4.000000 10.000000 41.000000 4.000000 13.000000 41.000000 4.000000 14.000000 41.000000 4.000000 23.000000 41.000000 4.000000 24.000000 41.000000 4.000000 31.000000 41.000000 4.000000 5.000000 42.000000 4.000000 12.000000 42.000000 4.000000 24.000000 42.000000 4.000000 31.000000 42.000000 4.000000 5.000000 43.000000 4.000000 11.000000 43.000000 4.000000 12.000000 43.000000 4.000000 25.000000 43.000000 4.000000 26.000000 43.000000 4.000000 31.000000 43.000000 4.000000 6.000000 44.000000 4.000000 7.000000 44.000000 4.000000 8.000000 44.000000 4.000000 9.000000 44.000000 4.000000 10.000000 44.000000 4.000000 11.000000 44.000000 4.000000 25.000000 44.000000 4.000000 26.000000 44.000000 4.000000 27.000000 44.000000 4.000000 28.000000 44.000000 4.000000 29.000000 44.000000 4.000000 30.000000 44.000000 4.000000 6.000000 45.000000 4.000000 7.000000 45.000000 4.000000 8.000000 45.000000 4.000000 9.000000 45.000000 4.000000 10.000000 45.000000 4.000000 29.000000 45.000000 4.000000 30.000000 45.000000 4.000000 9.000000 29.000000 5.000000 10.000000 29.000000 5.000000 11.000000 29.000000 5.000000 12.000000 29.000000 5.000000 25.000000 29.000000 5.000000 26.000000 29.000000 5.000000 27.000000 29.000000 5.000000 28.000000 29.000000 5.000000 8.000000 30.000000 5.000000 12.000000 30.000000 5.000000 13.000000 30.000000 5.000000 24.000000 30.000000 5.000000 28.000000 30.000000 5.000000 29.000000 30.000000 5.000000 7.000000 31.000000 5.000000 8.000000 31.000000 5.000000 13.000000 31.000000 5.000000 14.000000 31.000000 5.000000 23.000000 31.000000 5.000000 24.000000 31.000000 5.000000 29.000000 31.000000 5.000000 30.000000 31.000000 5.000000 7.000000 32.000000 5.000000 15.000000 32.000000 5.000000 22.000000 32.000000 5.000000 23.000000 32.000000 5.000000 27.000000 32.000000 5.000000 30.000000 32.000000 5.000000 6.000000 33.000000 5.000000 7.000000 33.000000 5.000000 9.000000 33.000000 5.000000 10.000000 33.000000 5.000000 11.000000 33.000000 5.000000 12.000000 33.000000 5.000000 13.000000 33.000000 5.000000 15.000000 33.000000 5.000000 22.000000 33.000000 5.000000 24.000000 33.000000 5.000000 25.000000 33.000000 5.000000 26.000000 33.000000 5.000000 27.000000 33.000000 5.000000 28.000000 33.000000 5.000000 30.000000 33.000000 5.000000 6.000000 34.000000 5.000000 9.000000 34.000000 5.000000 10.000000 34.000000 5.000000 11.000000 34.000000 5.000000 12.000000 34.000000 5.000000 13.000000 34.000000 5.000000 14.000000 34.000000 5.000000 22.000000 34.000000 5.000000 24.000000 34.000000 5.000000 25.000000 34.000000 5.000000 26.000000 34.000000 5.000000 27.000000 34.000000 5.000000 28.000000 34.000000 5.000000 29.000000 34.000000 5.000000 31.000000 34.000000 5.000000 6.000000 35.000000 5.000000 9.000000 35.000000 5.000000 10.000000 35.000000 5.000000 11.000000 35.000000 5.000000 12.000000 35.000000 5.000000 13.000000 35.000000 5.000000 14.000000 35.000000 5.000000 22.000000 35.000000 5.000000 25.000000 35.000000 5.000000 26.000000 35.000000 5.000000 27.000000 35.000000 5.000000 28.000000 35.000000 5.000000 29.000000 35.000000 5.000000 31.000000 35.000000 5.000000 6.000000 36.000000 5.000000 9.000000 36.000000 5.000000 10.000000 36.000000 5.000000 11.000000 36.000000 5.000000 12.000000 36.000000 5.000000 13.000000 36.000000 5.000000 14.000000 36.000000 5.000000 22.000000 36.000000 5.000000 25.000000 36.000000 5.000000 26.000000 36.000000 5.000000 27.000000 36.000000 5.000000 28.000000 36.000000 5.000000 29.000000 36.000000 5.000000 31.000000 36.000000 5.000000 5.000000 37.000000 5.000000 8.000000 37.000000 5.000000 9.000000 37.000000 5.000000 10.000000 37.000000 5.000000 11.000000 37.000000 5.000000 12.000000 37.000000 5.000000 13.000000 37.000000 5.000000 22.000000 37.000000 5.000000 25.000000 37.000000 5.000000 26.000000 37.000000 5.000000 27.000000 37.000000 5.000000 28.000000 37.000000 5.000000 29.000000 37.000000 5.000000 30.000000 37.000000 5.000000 5.000000 38.000000 5.000000 7.000000 38.000000 5.000000 8.000000 38.000000 5.000000 9.000000 38.000000 5.000000 10.000000 38.000000 5.000000 11.000000 38.000000 5.000000 12.000000 38.000000 5.000000 13.000000 38.000000 5.000000 15.000000 38.000000 5.000000 22.000000 38.000000 5.000000 25.000000 38.000000 5.000000 26.000000 38.000000 5.000000 27.000000 38.000000 5.000000 28.000000 38.000000 5.000000 29.000000 38.000000 5.000000 32.000000 38.000000 5.000000 4.000000 39.000000 5.000000 5.000000 39.000000 5.000000 7.000000 39.000000 5.000000 8.000000 39.000000 5.000000 9.000000 39.000000 5.000000 10.000000 39.000000 5.000000 11.000000 39.000000 5.000000 12.000000 39.000000 5.000000 15.000000 39.000000 5.000000 22.000000 39.000000 5.000000 25.000000 39.000000 5.000000 26.000000 39.000000 5.000000 27.000000 39.000000 5.000000 28.000000 39.000000 5.000000 29.000000 39.000000 5.000000 32.000000 39.000000 5.000000 4.000000 40.000000 5.000000 7.000000 40.000000 5.000000 8.000000 40.000000 5.000000 9.000000 40.000000 5.000000 10.000000 40.000000 5.000000 11.000000 40.000000 5.000000 12.000000 40.000000 5.000000 22.000000 40.000000 5.000000 25.000000 40.000000 5.000000 26.000000 40.000000 5.000000 27.000000 40.000000 5.000000 28.000000 40.000000 5.000000 29.000000 40.000000 5.000000 32.000000 40.000000 5.000000 4.000000 41.000000 5.000000 6.000000 41.000000 5.000000 7.000000 41.000000 5.000000 8.000000 41.000000 5.000000 9.000000 41.000000 5.000000 10.000000 41.000000 5.000000 11.000000 41.000000 5.000000 14.000000 41.000000 5.000000 22.000000 41.000000 5.000000 23.000000 41.000000 5.000000 25.000000 41.000000 5.000000 26.000000 41.000000 5.000000 27.000000 41.000000 5.000000 28.000000 41.000000 5.000000 29.000000 41.000000 5.000000 32.000000 41.000000 5.000000 4.000000 42.000000 5.000000 6.000000 42.000000 5.000000 7.000000 42.000000 5.000000 8.000000 42.000000 5.000000 9.000000 42.000000 5.000000 10.000000 42.000000 5.000000 13.000000 42.000000 5.000000 14.000000 42.000000 5.000000 23.000000 42.000000 5.000000 26.000000 42.000000 5.000000 27.000000 42.000000 5.000000 28.000000 42.000000 5.000000 29.000000 42.000000 5.000000 30.000000 42.000000 5.000000 32.000000 42.000000 5.000000 4.000000 43.000000 5.000000 6.000000 43.000000 5.000000 7.000000 43.000000 5.000000 8.000000 43.000000 5.000000 9.000000 43.000000 5.000000 10.000000 43.000000 5.000000 12.000000 43.000000 5.000000 24.000000 43.000000 5.000000 28.000000 43.000000 5.000000 29.000000 43.000000 5.000000 30.000000 43.000000 5.000000 32.000000 43.000000 5.000000 5.000000 44.000000 5.000000 11.000000 44.000000 5.000000 12.000000 44.000000 5.000000 25.000000 44.000000 5.000000 26.000000 44.000000 5.000000 31.000000 44.000000 5.000000
[...]
POINT_DATA 17338
VECTORS vector_field float
0.000075 0.000007 -0.000001 -0.000004 0.000022 0.000007 -0.000338 -0.000051 -0.000013 -0.000008 -0.000026 -0.000196 0.003692 0.004192 0.003010 0.000055 0.000045 0.000012 0.000324 -0.008831 -0.001225 -0.000108 0.000012 -0.000134 0.000089 0.000078 -0.000360 0.000003 0.000004 0.000003 0.000008 0.000003 -0.000047 -0.002767 0.001603 -0.002996 0.000797 0.005069 -0.005496 0.002577 -0.003562 -0.006104 0.000964 -0.001248 -0.002586 -0.000004 0.000483 -0.000005 -0.000004 -0.000006 -0.000019 0.000025 0.000139 0.000030 0.005149 0.016575 -0.012478 0.000196 0.000182 0.000188 -0.000003 0.000030 -0.000025 0.000081 0.000083 -0.000148 0.000182 -0.001310 0.000112 0.006845 0.005996 -0.017253 0.004746 0.041320 0.004525 0.000020 -0.000013 -0.000016 0.001462 0.000446 -0.003598 0.004342 -0.007675 -0.010788 0.004207 -0.030750 0.004045 0.001467 0.001529 0.000875 -0.002739 0.003980 0.001035 -0.001927 0.005810 0.002064 0.036227 0.011770 -0.014303 0.005743 0.005344 -0.009319 0.003246 0.001596 0.001018 -0.011136 0.000714 0.000756 0.002552 0.004709 0.004339 0.001152 0.001866 0.000869 0.000000 0.000000 0.000000 -0.000000 0.000000 0.000000 -0.000000 -0.000000 -0.000000 -0.000000 -0.000000 0.000000 -0.000000 -0.000000 -0.000000 0.000000 -0.000000 -0.000000 0.000000 0.000000 0.000000 0.000000 0.000000 -0.000000 0.000000 -0.000000 -0.000000 0.000002 -0.000002 0.000000 0.000000 -0.000000 0.000000 -0.000000 -0.000000 -0.000000 0.000000 -0.000000 -0.000002 0.000001 0.000197 -0.000004 -0.000000 -0.000000 -0.000001 0.000360 0.000596 0.000187 0.000000 -0.000000 -0.000000 0.000270 0.000266 -0.000075 0.000135 0.000254 0.001032 0.000017 -0.000892 0.000002 0.000000 -0.000000 -0.000001 0.000001 -0.000205 -0.000009 0.000026 0.000128 0.000008 0.000063 0.000614 0.000045 -0.000002 0.000083 -0.000000 -0.000005 0.001700 -0.000141 0.000451 -0.000014 0.000330 0.000000 0.000222 -0.000027 0.000158 -0.000419 -0.000061 0.001266 0.000864 -0.000019 -0.004405 -0.005425 -0.015179 0.000331 0.010972 -0.011970 0.001898 -0.008750 0.000217 -0.000014 0.000352 0.000014 0.009033 0.007463 0.004839 0.000300 0.001375 0.000422 -0.003868 -0.000060 0.026724 0.023628 0.026676 -0.026715 0.004886 0.069842 -0.019208 0.010344 -0.013320 0.002859 0.000044 0.000012 -0.000004 0.001283 0.003641 -0.001003 -0.000014 0.000012 -0.000017 0.011026 0.037730 -0.014173 0.051772 0.034820 -0.045480 -0.002866 0.014138 -0.026120 -0.000385 -0.001128 -0.002868 0.010606 0.008411 -0.009799 0.000049 -0.000289 0.000001 0.002239 0.001370 -0.000036 -0.000000 0.000001 -0.000000 -0.000006 0.000001 -0.000002 0.041311 0.004007 0.082325 0.012520 0.055083 -0.026638 -0.006145 0.079241 -0.029704 -0.013401 -0.015813 -0.007462 0.002943 0.001614 0.001678 0.000011 -0.000056 -0.000002 0.022046 0.166023 0.417304 -0.263218 0.045770 0.047113 0.041302 -0.028315 -0.033049 0.004044 -0.001499 -0.001613 0.000011 -0.000005 -0.000002 0.066837 0.000701 -0.005272 0.036941 -0.003988 -0.015948 -0.055747 0.076458 -0.025294 -0.007318 0.000362 -0.006432 0.004779 0.003579 0.003387 -0.000023 -0.000155 -0.000020 0.002155 -0.108327 0.099828 -0.343306 0.000469 0.231301 -0.128446 0.013699 0.026099 0.005660 0.007479 -0.007558 -0.000065 -0.000235 0.000112 0.055832 0.005871 0.008202 0.057793 0.002175 0.005575 -0.031105 -0.007351 -0.003024 0.003057 0.001618 0.000136 0.001156 0.000906 -0.001033 -0.001565 0.000302 0.000430 0.002207 0.003061 -0.004039 0.004410 0.002440 -0.001533 0.000774 0.000063 0.001468 0.001507 -0.000589 -0.001357 -0.000619 0.000849 -0.000757 0.003298 -0.001470 -0.001133 0.001095 0.001275 0.001191 -0.000889 0.012536 -0.001734 0.005284 0.003724 -0.006244 -0.005200 -0.003886 -0.008304 0.003499 0.002254 -0.003144 -0.000281 -0.002843 -0.001054 0.004920 0.002091 0.000638 0.000364 0.002076 0.000610 -0.000990 0.000368 0.000294 0.005949 0.002964 0.001524 0.003805 0.000685 -0.000299 -0.001011 0.001770 -0.000629 0.001399 0.006991 -0.009258 0.010724 0.011358 -0.011155 0.000465 0.000676 -0.001168 0.000032 0.000534 -0.000174 0.001327 0.000636 -0.000619 0.000028 0.000050 -0.000008 0.000043 0.000071 0.000030 -0.000116 -0.000575 0.000006 -0.000018 -0.000099 0.000001 0.000342 0.000063 0.000037 -0.000000 -0.000051 -0.000006 0.000027 0.000027 -0.000079 0.000001 0.000000 -0.000001 0.000001 0.000001 0.000000 0.000000 -0.000000 -0.000000 0.000002 -0.000000 0.000000 0.000003 0.000000 0.000003 0.000001 0.000001 -0.000004 0.000000 -0.000000 -0.000000 0.000001 -0.000000 -0.000000 0.000000 0.000000 0.000000 0.000001 0.000001 0.000000 0.000058 0.000058 0.000056 0.000000 0.000000 0.000000 0.000008 0.000007 -0.000036 0.000001 -0.000022 -0.000009 0.000000 -0.000000 -0.000000 0.000002 0.000001 0.000002 -0.000004 -0.000002 -0.000000 0.000000 -0.000000 -0.000000 -0.000000 -0.000001 -0.000000 0.000007 0.000018 -0.000014 0.000000 0.000000 0.000001 0.000002 -0.000003 -0.000010 0.000000 -0.000000 -0.000000 0.000041 -0.000346 -0.000046 0.000043 0.001231 -0.000002 0.000275 0.000512 0.000483 0.000105 0.000064 0.000095 0.000535 0.010149 0.002608 0.000000 -0.000000 -0.000000 -0.000159 0.000287 -0.000065 0.002990 0.002975 0.002771 -0.000577 -0.000635 0.004840 0.001003 -0.003360 0.013923 0.002902 -0.003395 -0.002041 0.000205 -0.000266 0.000621 -0.000575 -0.000680 -0.000153 0.003171 0.000296 -0.001703 -0.000007 0.000341 0.000002 -0.000201 -0.000357 -0.000442 0.014084 -0.002066 0.015056 0.014582 0.006477 0.004535 -0.000652 0.007825 0.012664 -0.015500 0.000784 -0.000179 0.000000 -0.000006 -0.000010 0.000183 0.000320 0.003896 -0.003358 0.023325 -0.005854 -0.002883 -0.002474 0.062121 0.008197 0.000155 0.103216 -0.002624 -0.001396 0.058941 0.001825 -0.002307 0.023406 0.000272 -0.000047 0.010083 0.000013 0.000138 0.000013 -0.003528 -0.012470 -0.006871 0.023500 -0.004144 0.066684 0.046417 -0.003534 0.044683 -0.003278 0.035592 0.042348 0.000831 0.002019 0.005386 0.000035 0.001742 -0.000581 0.001280 -0.001316 -0.002558 0.001603 -0.003351 -0.000483 -0.000877 -0.002208 -0.000836 -0.037466 -0.006995 0.065543 0.003827 -0.005646 0.109041 -0.004397 -0.007592 0.135835 0.005881 -0.008381 0.062225 0.005776 -0.003553 0.022234 0.000181 0.000621 0.000075 0.115854 0.148854 0.352362 0.106300 0.030808 0.098064 -0.000859 0.092346 0.078233 0.004860 -0.001860 0.006527 -0.000107 -0.005326 0.035726 0.001755 0.002747 -0.001288 0.001809 0.004067 0.002624 -0.013573 0.039540 -0.010094 0.010145 0.035610 -0.024621 0.002775 -0.017451 -0.013821 -0.000895 -0.027520 0.016212 0.023426 -0.021417 -0.015015 0.010740 -0.009909 0.004459 0.000568 -0.003861 -0.000706 0.059292 0.210697 0.379971 0.194102 0.093195 0.029632 -0.047064 -0.015346 0.106798 -0.158507 -0.016072 -0.018193 0.018452 -0.040670 0.001737 0.001815 0.000893 0.000109 0.000061 0.000139 0.000082 0.016236 -0.002801 -0.004285 -0.001107 -0.000136 -0.009794 -0.033967 -0.009101 -0.078426 -0.052028 -0.024184 -0.121099 -0.002523 -0.005255 -0.062281 0.038996 0.003004 -0.057678 -0.000213 -0.014698 -0.002273 0.103949 -0.012370 0.417775 0.005126 0.092547 0.076291 -0.085540 -0.152377 0.044154 -0.157872 -0.030746 -0.022833 0.076535 -0.026818 -0.052330 0.011430 -0.011633 -0.014941 -0.000002 -0.000090 -0.000001 -0.001464 -0.000289 0.000163 -0.011545 0.066314 -0.005187 -0.026590 -0.055722 -0.023749 0.068858 -0.075844 -0.150899 -0.031135 0.070167 -0.208739 -0.025358 0.020964 -0.059901 0.053985 0.040656 -0.058569 0.015669 0.006193 -0.009596 0.003182 0.002538 0.001245 0.290725 -0.147211 0.173260 -0.108266 0.299954 0.169559 -0.329053 0.056435 0.014688 0.018805 0.020934 0.027020 0.044180 -0.020536 -0.047232 0.004152 -0.000038 0.000488 0.000111 0.000185 0.000708 -0.000151 -0.000010 -0.000013 0.016696 0.009199 -0.001068 -0.015306 -0.001648 -0.001483 -0.037470 0.127470 -0.143404 0.165863 0.095820 -0.171043 0.007644 -0.013295 -0.118238 0.002895 0.009598 -0.028920 0.012588 0.012708 -0.006789 0.002884 0.007156 -0.003441 0.686396 -0.026113 0.137763 -0.249904 -0.148603 -0.164421 -0.407130 0.204984 -0.009674 -0.061997 0.011027 -0.029288 0.026836 -0.015478 -0.035289 0.002539 -0.001119 -0.005529 0.000467 0.026721 0.000604 -0.000290 0.003805 0.000410 -0.038049 0.013385 0.002535 0.004790 -0.033733 -0.197448 -0.050144 -0.039037 -0.283704 0.019186 0.013177 -0.018838 0.014241 0.002241 -0.021858 0.000040 0.006080 -0.000018 0.404941 -0.100257 0.052749 0.032795 -0.241231 -0.169034 -0.349022 -0.029209 -0.072540 -0.273501 0.017736 -0.029098 0.071561 0.051014 -0.060464 0.002411 0.010820 -0.005223 0.000831 0.000570 0.000847 0.000400 0.000137 0.000240 -0.002854 -0.002952 0.000382 -0.020202 0.000835 0.003103 0.002174 0.002675 -0.050470 -0.043805 0.001738 -0.074607 0.007748 0.018816 -0.027502 0.002631 0.013922 -0.001384 0.000186 0.000106 0.000560 -0.002170 0.001158 -0.000176 0.023364 0.049893 -0.015763 -0.010670 0.016810 -0.048447 0.014907 -0.237745 -0.029754 -0.053834 -0.047080 -0.023774 0.046673 0.046238 -0.041488 0.001825 0.001337 0.000283 -0.000010 0.000238 -0.000009 0.000003 0.000322 0.000019 -0.000054 0.001456 -0.000009 -0.002826 0.025547 -0.001111 -0.033567 0.027661 0.003914 0.029498 0.044560 0.021716 0.017323 -0.000476 -0.000468 -0.006840 0.002210 0.002448 0.000005 0.000087 -0.000066 -0.013127 0.004771 -0.023899 -0.009542 0.047521 -0.052823 0.038484 0.061809 -0.049085 0.025497 0.126442 -0.034172 0.036822 0.039410 -0.041246 0.001455 -0.002763 0.000672 0.000245 0.000196 0.000133 0.006548 0.000213 0.000278 0.006452 0.000514 0.000432 -0.000522 0.001529 0.000171 0.003843 0.004854 -0.001937 -0.001359 0.009797 -0.003616 0.001414 -0.011828 -0.016022 -0.010266 0.005717 -0.007524 0.085707 0.045663 -0.037742 0.022523 0.032564 -0.027584 0.003334 0.005343 -0.006158 0.001447 -0.003175 -0.000087 0.000002 0.000081 0.000032 -0.004341 0.011539 -0.043587 0.010229 0.010493 0.007094 0.004440 0.012986 -0.003022 0.010096 0.017999 0.003263 0.000183 0.001463 0.000073 -0.000000 0.000005 -0.000013 -0.006532 0.001882 -0.005066 0.000038 0.000896 -0.000967 0.014097 0.014551 0.007777 0.000065 0.000009 0.000008 0.033120 0.001653 -0.051304 -0.009587 -0.009052 -0.022448 0.020849 -0.001182 -0.059136 0.018096 0.004028 -0.029103 0.020131 0.019489 -0.051595 -0.014404 -0.007263 -0.038977 0.070355 0.003359 -0.025411 0.011634 -0.031818 -0.032463 0.000016 -0.006964 -0.043516 -0.021970 0.056097 -0.030121 0.022434 0.010416 -0.040277 -0.004637 0.013972 -0.038515 0.040904 0.019639 -0.025407 -0.022086 -0.015670 -0.023170 0.026983 -0.004568 -0.035400 0.010999 0.049911 -0.016572 0.008447 0.317770 0.010161 0.092585 0.011552 -0.006556 0.011113 0.022739 -0.001629 -0.176744 -0.164327 -0.171272 0.018825 0.025708 -0.010182 0.000001 -0.000001 -0.000001 0.000005 -0.000000 -0.000002 0.000000 0.000000 0.000000 -0.000000 0.000000 -0.000000 0.000001 -0.000004 -0.000001 0.000000 0.000000 -0.000000 0.000031 -0.000000 -0.000001 0.000006 0.000006 0.000005 0.000785 0.000818 0.000757 -0.000000 0.000000 -0.000000 0.004715 0.002855 0.003659 0.000001 0.000001 0.000018 -0.000000 0.000000 -0.000000 0.000000 -0.000000 0.000000 -0.000000 -0.000000 -0.000000 0.005004 0.006070 0.005573 0.000036 -0.000031 -0.000007 0.000000 0.000000 0.000004 0.000006 -0.000006 -0.000031 0.000102 0.002595 0.000752 -0.000942 0.001542 0.000810 0.000049 0.000015 0.000410 0.000002 0.000027 -0.000001 0.000000 -0.000001 0.000005 0.000008 0.000057 0.000024 0.000052 0.000036 0.000589 0.000403 0.000681 0.001252 0.001353 0.019700 0.043745 -0.003557 0.002429 0.026617 0.006781 0.005525 0.005006 0.001447 -0.000070 0.000933 0.003159 0.001069 0.036575 -0.005439 0.005422 0.009431 0.000664 -0.000329 -0.000002 -0.000001 0.000135 0.000330 -0.001947 -0.000545 0.004178 0.002412 0.016803 0.004821 0.000003 0.000006 0.000014 0.000432 -0.000110 0.018671 -0.000088 0.000236 0.019004 0.005683 -0.000520 0.003585 0.005120 0.048300 0.000031 -0.014754 -0.005850 0.000012 0.002036 -0.001186 -0.002232 0.004167 -0.000338 -0.000158 0.014179 -0.017374 0.006016 -0.027457 0.107830 -0.001761 0.007006 0.053358 -0.002792 0.001402 0.040964 0.003623 0.029957 0.056286 0.017172 -0.001059 0.004532 0.000936 0.000007 0.000132 -0.000002 -0.000698 0.003593 0.002359 0.029712 -0.001889 0.184243 -0.015235 0.040551 0.213362 0.066570 0.055844 0.049168 -0.003113 0.035422 -0.008477 -0.039025 0.023100 -0.014989 0.003514 -0.001013 -0.004462 0.003867 -0.002904 0.021979 0.001201 0.013031 0.051675 -0.005890 0.001223 -0.000074 -0.003116 -0.002438 -0.001293 0.171684 -0.027641 0.002398 0.138136 0.056772 -0.018715 0.064227 0.088213 0.081480 -0.024122 0.090786 0.116158 -0.082301 0.008865 0.053565 -0.045298 -0.003237 0.014486 0.000061 0.000055 0.000038 0.000038 0.006819 0.017739 0.140416 -0.005857 0.197554 0.011608 0.049454 0.235843 0.100601 0.078359 0.117130 -0.026879 0.086835 0.015280 -0.096338 0.001859 0.003380 0.004885 0.041099 -0.009361 0.006564 0.002860 0.005344 0.005303 -0.000835 0.042392 -0.013474 -0.012863 0.002012 0.106877 -0.011145 0.047991 0.115889 -0.143407 0.030216 0.047017 -0.057707 0.001208 -0.004431 -0.091062 0.019423 -0.092370 -0.065015 0.113273 -0.075857 -0.048021 0.030140 -0.000094 -0.005238 -0.000043 0.000763 -0.010792 0.018686 0.218667 0.015819 0.179888 0.122587 0.191153 0.090955 0.181156 0.000261 0.085347 -0.052079 -0.001444 -0.059277 0.053812 -0.034460 -0.011736 -0.004877 -0.000641 -0.005912 0.008696 0.010840 0.011182 -0.009943 -0.014710 0.002131 -0.003009 0.023830 0.000024 -0.021080 0.006195 0.002335 -0.009489 -0.013142 -0.018811 0.011213 -0.153001 -0.012620 0.011049 -0.140621 -0.019808 -0.002246 -0.145038 0.005554 0.047967 -0.157768 0.124425 -0.011764 -0.096621 0.085306 0.001824 0.021963 -0.010360 -0.001326 -0.046054 -0.005676 0.199765 0.022104 -0.011421 0.217561 0.252564 0.078516 0.111471 0.120455 -0.027036 -0.028519 -0.097030 -0.137825 0.042363 -0.085182 -0.074203 0.007873 -0.085051 -0.015433 0.000727 0.001089 0.000842 -0.001882 0.002947 0.005922 -0.080171 0.000600 -0.013315 -0.067494 -0.016546 -0.043898 0.088477 0.176153 -0.008527 0.072693 0.128088 -0.078118 0.065742 0.075222 -0.054369 0.112583 0.027953 -0.047494 0.033036 -0.106064 0.010280 0.000338 0.016088 -0.005648 0.086078 -0.001013 0.009246 0.346738 0.008512 -0.031525 0.149148 -0.108455 -0.048932 -0.152177 0.090599 -0.094527 -0.166968 -0.163791 -0.144609 -0.307717 0.002876 -0.065625 0.067776 0.010907 -0.051770 0.044912 -0.036072 -0.049210 0.000299 -0.000321 -0.000458 0.000061 -0.000064 0.000056 0.001072 -0.000925 -0.003107 -0.002473 -0.036365 0.014187 -0.031984 -0.004942 0.010836 -0.068869 -0.028692 0.025005 -0.000443 0.023356 -0.107700 0.087339 0.042952 -0.132111 0.018490 0.043328 -0.065828 0.024471 0.032432 -0.067085 0.025154 0.020553 -0.018035 0.000637 0.002505 -0.001873 -0.023659 -0.003922 0.007225 0.181089 0.052616 -0.006339 0.199408 -0.171180 -0.127780 -0.142637 -0.056210 -0.201961 -0.309843 -0.205605 -0.013900 -0.053869 -0.061730 -0.000695 0.019523 -0.033496 -0.028757 0.048948 -0.038686 -0.034732 0.000057 0.000018 0.000028 -0.000234 -0.000235 -0.000048 -0.000797 0.010417 -0.002390 -0.002559 0.000748 -0.001642 -0.057044 -0.013266 -0.101227 -0.065666 0.128098 -0.150251 0.019560 0.143797 -0.143874 0.048683 0.046127 -0.096114 -0.015665 0.042835 -0.064940 0.041783 0.031504 -0.060681 0.006674 0.015010 -0.012622 -0.000026 -0.000645 -0.000933 0.026011 0.002285 -0.007225 0.388156 -0.219877 -0.256337 -0.023480 -0.177415 -0.313781 -0.291585 -0.035135 -0.045066 0.029560 0.074060 0.028331 0.053471 -0.060304 0.014559 0.045686 -0.059620 0.047124 0.079355 -0.065410 0.020519 0.000041 0.000049 0.000144 0.000402 0.002743 -0.000008 -0.006986 0.000723 -0.008418 -0.044094 0.051574 -0.043718 -0.015591 0.221320 -0.046269 -0.004913 0.124790 -0.203454 0.035478 0.029800 -0.045378 0.013105 0.038569 -0.030840 0.032457 0.027018 -0.050120 0.002508 0.004685 -0.009232 0.001691 -0.007700 0.002089 -0.012153 0.010317 -0.009356 -0.005221 -0.028055 -0.019335 0.083491 -0.113975 -0.152820 -0.017854 -0.180986 -0.289546 -0.148976 -0.037137 -0.310037 -0.145240 0.213896 -0.129784 0.031724 0.088292 -0.054878 0.049823 0.017412 0.091371 0.079624 0.031071 0.030674 0.000025 -0.000060 0.000025 0.001244 0.000956 0.002056 -0.000596 -0.000643 -0.001218 0.001628 0.000642 -0.003833 -0.018880 0.020973 -0.013766 -0.008421 0.048340 0.077032 -0.016316 0.044700 0.028158 0.055850 0.009107 -0.025677 0.012069 0.016152 -0.022264 0.001748 0.001009 -0.003545 0.000585 -0.000684 -0.011854 -0.038122 0.019083 -0.058315 -0.035627 0.002752 -0.043381 -0.029955 0.015339 -0.068694 0.075296 -0.041234 -0.074714 -0.018833 0.013669 -0.065545 -0.091339 0.012145 -0.045152 0.061571 0.058427 -0.004167 0.003553 0.002942 0.002442 -0.000055 0.001371 -0.000061 0.000221 0.000057 -0.000512 0.000011 -0.000058 -0.000029 -0.000324 0.000011 -0.000294 -0.006072 -0.011226 -0.007569 0.025303 -0.030126 0.095358 -0.018111 0.001313 -0.003543 0.016591 0.002476 -0.031457 0.001952 0.001033 -0.009595 -0.000556 0.001969 -0.012108 -0.033385 0.013848 -0.061914 -0.021958 0.045452 -0.069288 0.003446 0.048385 -0.063937 -0.019067 0.055165 -0.083638 0.035249 0.069711 -0.062795 0.070456 0.087452 -0.043094 0.000289 0.001559 0.000045 0.001041 0.001138 0.001200 -0.000015 0.000098 -0.000398 -0.000203 -0.000217 -0.001244 -0.002786 -0.002366 -0.012078 0.012008 0.004769 0.031795 0.014588 0.010943 0.046617 -0.007215 0.019115 -0.024235 -0.003475 0.004432 -0.027005 0.013826 -0.008083 -0.016115 -0.004056 -0.002308 -0.015001 0.005884 0.012862 -0.048568 -0.017010 0.023817 -0.050658 -0.046051 0.057185 -0.056455 0.039227 0.069552 -0.062715 0.049864 0.103568 -0.086726 0.026450 0.050951 -0.022490 0.004293 0.000291 0.002301 0.000011 0.000049 0.000176 -0.008231 0.009141 -0.008348 0.000280 0.019503 0.029925 0.009502 0.017436 -0.017121 0.000372 0.008741 -0.012202 0.001932 0.010891 -0.013371 -0.000752 0.004362 -0.004147 0.048019 0.043258 -0.040501 0.027135 0.019928 -0.016198 0.000871 0.002206 -0.000530 0.003818 0.005264 0.005713 -0.000006 0.000008 0.000017 -0.002278 0.004513 -0.007761 0.003107 0.007614 -0.004438 -0.000057 0.000153 -0.000004 0.059566 -0.009806 -0.017974 0.008712 -0.009333 0.008161 0.056146 -0.006706 -0.029288 -0.036374 0.006543 -0.038424 -0.003940 -0.003766 -0.034474 0.072800 -0.002964 -0.029985 -0.012790 -0.093069 -0.077964 0.025776 0.009786 -0.081041 0.023328 -0.025684 -0.079429 -0.024952 -0.000973 -0.038485 -0.028034 -0.005386 -0.022244 0.046027 -0.011510 -0.051670 0.021979 -0.000272 -0.049208 -0.030934 0.010315 -0.008368 -0.027158 0.069840 -0.003469 -0.046905 0.120921 0.002516 -0.017264 0.116920 0.000405 0.002890 0.110632 0.006750 0.008072 0.099741 -0.005533 0.034110 0.052090 -0.042148 0.058360 0.087629 -0.002537 -0.031958 0.152985 0.001692 -0.067732 0.197089 0.007826 -0.031253 0.170363 0.010714 -0.000907 0.138072 -0.000859 -0.038323 0.166019 0.009256 0.041870 0.168137 0.004274 -0.001314 0.179772 -0.007570 0.065398 -0.021859 -0.007007 -0.060650 0.081576 -0.016089 -0.049122 0.239332 0.016601 -0.096562 0.235699 0.005552 -0.041116 0.240374 0.004231 -0.007992 0.221744 0.011385 -0.017674 0.250272 0.004984 0.114910 0.194776 0.002862 0.043371 0.282320 0.009230 -0.004658 0.137247 -0.011941 -0.114145 0.026834 -0.011009 -0.101527 0.177845 0.024712 -0.063576 0.250733 -0.000791 0.021781 0.269745 0.011145 -0.010826 0.208688 0.005057 -0.031745 0.245939 0.004990 0.076212 0.268763 -0.003486 0.065589 0.345713 0.016750 -0.028711 0.152002 0.004843 0.040093 0.128078 -0.026348 0.001049 0.001590 0.001291 0.001751 0.000300 0.000200 0.024772 0.000569 0.000483 0.009154 -0.003498 -0.003498 -0.055208 0.007903 0.003007 0.008545 0.005670 0.002979 -0.005591 0.002082 0.000144 0.000060 0.000077 0.000070 0.001053 -0.001327 -0.003034 -0.000000 -0.000020 0.000000 0.007153 0.008671 0.003735 0.006720 0.013868 0.004034 0.000000 -0.000002 -0.000001 0.001030 0.009890 0.000140 0.000053 -0.000018 -0.000240 0.000581 0.000248 0.000483 0.000056 0.000059 -0.000081 -0.002367 -0.002878 -0.001729 0.001058 -0.000032 -0.000013 0.000033 0.000011 0.000011 -0.000067 0.000075 0.000074 0.001806 0.000195 0.000194 0.001108 0.001420 0.001472 0.001913 0.000610 0.000187 -0.003311 0.002820 0.001730 0.005914 0.000319 0.000177 -0.000661 0.001621 0.001117 -0.000001 0.000001 -0.000005 0.000041 0.000076 -0.000012 0