# vtk DataFile Version 2.0
VTK from Matlab
ASCII
DATASET STRUCTURED_GRID
DIMENSIONS 934 1 1
POINTS 934 float
10.000000 37.000000 4.000000 12.000000 35.000000 6.000000 11.000000 37.000000 6.000000 17.000000 50.000000 6.000000 16.000000 51.000000 6.000000 21.000000 51.000000 6.000000 27.000000 35.000000 7.000000 11.000000 37.000000 7.000000 9.000000 41.000000 7.000000 20.000000 49.000000 7.000000 19.000000 50.000000 7.000000 17.000000 51.000000 7.000000 22.000000 51.000000 7.000000 10.000000 37.000000 8.000000 11.000000 38.000000 8.000000 14.000000 40.000000 8.000000 19.000000 48.000000 8.000000 19.000000 49.000000 8.000000 17.000000 50.000000 8.000000 14.000000 51.000000 8.000000 19.000000 51.000000 8.000000 15.000000 52.000000 8.000000 17.000000 22.000000 9.000000 18.000000 36.000000 9.000000 28.000000 36.000000 9.000000 13.000000 37.000000 9.000000 18.000000 37.000000 9.000000 27.000000 37.000000 9.000000 13.000000 38.000000 9.000000 18.000000 38.000000 9.000000 23.000000 38.000000 9.000000 17.000000 39.000000 9.000000 22.000000 39.000000 9.000000 15.000000 40.000000 9.000000 20.000000 40.000000 9.000000 12.000000 41.000000 9.000000 17.000000 41.000000 9.000000 22.000000 41.000000 9.000000 27.000000 41.000000 9.000000 15.000000 42.000000 9.000000 20.000000 42.000000 9.000000 25.000000 42.000000 9.000000 13.000000 43.000000 9.000000 18.000000 43.000000 9.000000 23.000000 43.000000 9.000000 13.000000 44.000000 9.000000 18.000000 44.000000 9.000000 23.000000 44.000000 9.000000 16.000000 45.000000 9.000000 21.000000 45.000000 9.000000 15.000000 46.000000 9.000000 20.000000 46.000000 9.000000 20.000000 48.000000 9.000000 17.000000 49.000000 9.000000 22.000000 49.000000 9.000000 18.000000 50.000000 9.000000 14.000000 51.000000 9.000000 19.000000 51.000000 9.000000 15.000000 52.000000 9.000000 14.000000 52.999900 9.000000 14.000000 1.000000 10.000000 14.000000 22.000000 10.000000 16.000000 23.000000 10.000000 13.000000 24.000000 10.000000 18.000000 24.000000 10.000000 23.000000 24.000000 10.000000 15.000000 25.000000 10.000000 20.000000 25.000000 10.000000 12.000000 26.000000 10.000000 17.000000 26.000000 10.000000 23.000000 26.000000 10.000000 17.000000 27.000000 10.000000 15.000000 28.000000 10.000000 20.000000 28.000000 10.000000 19.000000 29.000000 10.000000 18.000000 30.000000 10.000000 18.000000 31.000000 10.000000 14.000000 35.000000 10.000000 12.000000 36.000000 10.000000 17.000000 36.000000 10.000000 22.000000 36.000000 10.000000 27.000000 36.000000 10.000000 10.000000 37.000000 10.000000 15.000000 37.000000 10.000000 20.000000 37.000000 10.000000 26.000000 37.000000 10.000000 12.000000 38.000000 10.000000 17.000000 38.000000 10.000000 22.000000 38.000000 10.000000 27.000000 38.000000 10.000000 13.000000 39.000000 10.000000 18.000000 39.000000 10.000000 23.000000 39.000000 10.000000 10.000000 40.000000 10.000000 15.000000 40.000000 10.000000 20.000000 40.000000 10.000000 25.000000 40.000000 10.000000 12.000000 41.000000 10.000000 17.000000 41.000000 10.000000 22.000000 41.000000 10.000000 27.000000 41.000000 10.000000 10.000000 42.000000 10.000000 15.000000 42.000000 10.000000 20.000000 42.000000 10.000000 25.000000 42.000000 10.000000 9.000000 43.000000 10.000000 14.000000 43.000000 10.000000 19.000000 43.000000 10.000000 24.000000 43.000000 10.000000 9.000000 44.000000 10.000000 14.000000 44.000000 10.000000 19.000000 44.000000 10.000000 24.000000 44.000000 10.000000 9.000000 45.000000 10.000000 14.000000 45.000000 10.000000 19.000000 45.000000 10.000000 24.000000 45.000000 10.000000 10.000000 46.000000 10.000000 16.000000 46.000000 10.000000 21.000000 46.000000 10.000000 16.000000 47.000000 10.000000 14.000000 48.000000 10.000000 22.000000 48.000000 10.000000 17.000000 49.000000 10.000000 22.000000 49.000000 10.000000 17.000000 50.000000 10.000000 22.000000 50.000000 10.000000 17.000000 51.000000 10.000000 22.000000 51.000000 10.000000 19.000000 52.000000 10.000000 21.000000 52.999900 10.000000 21.000000 5.000000 11.000000 16.000000 7.000000 11.000000 20.000000 8.000000 11.000000 20.000000 10.000000 11.000000 17.000000 17.000000 11.000000 19.000000 18.000000 11.000000 20.000000 19.000000 11.000000 19.000000 20.000000 11.000000 17.000000 21.000000 11.000000 22.000000 21.000000 11.000000 15.000000 22.000000 11.000000 20.000000 22.000000 11.000000 12.000000 23.000000 11.000000 17.000000 23.000000 11.000000 22.000000 23.000000 11.000000 13.000000 24.000000 11.000000 18.000000 24.000000 11.000000 23.000000 24.000000 11.000000 14.000000 25.000000 11.000000 19.000000 25.000000 11.000000 24.000000 25.000000 11.000000 15.000000 26.000000 11.000000 20.000000 26.000000 11.000000 25.000000 26.000000 11.000000 17.000000 27.000000 11.000000 22.000000 27.000000 11.000000 14.000000 28.000000 11.000000 19.000000 28.000000 11.000000 24.000000 28.000000 11.000000 16.000000 29.000000 11.000000 21.000000 29.000000 11.000000 16.000000 30.000000 11.000000 21.000000 30.000000 11.000000 17.000000 31.000000 11.000000 22.000000 31.000000 11.000000 19.000000 32.000000 11.000000 23.000000 34.000000 11.000000 13.000000 35.000000 11.000000 18.000000 35.000000 11.000000 24.000000 35.000000 11.000000 10.000000 36.000000 11.000000 15.000000 36.000000 11.000000 20.000000 36.000000 11.000000 25.000000 36.000000 11.000000 9.000000 37.000000 11.000000 14.000000 37.000000 11.000000 19.000000 37.000000 11.000000 24.000000 37.000000 11.000000 7.000000 38.000000 11.000000 12.000000 38.000000 11.000000 17.000000 38.000000 11.000000 22.000000 38.000000 11.000000 27.000000 38.000000 11.000000 11.000000 39.000000 11.000000 16.000000 39.000000 11.000000 21.000000 39.000000 11.000000 26.000000 39.000000 11.000000 10.000000 40.000000 11.000000 15.000000 40.000000 11.000000 20.000000 40.000000 11.000000 25.000000 40.000000 11.000000 10.000000 41.000000 11.000000 15.000000 41.000000 11.000000 20.000000 41.000000 11.000000 25.000000 41.000000 11.000000 30.000000 41.000000 11.000000 12.000000 42.000000 11.000000 17.000000 42.000000 11.000000 22.000000 42.000000 11.000000 27.000000 42.000000 11.000000 10.000000 43.000000 11.000000 15.000000 43.000000 11.000000 20.000000 43.000000 11.000000 25.000000 43.000000 11.000000 8.000000 44.000000 11.000000 13.000000 44.000000 11.000000 18.000000 44.000000 11.000000 23.000000 44.000000 11.000000 28.000000 44.000000 11.000000 11.000000 45.000000 11.000000 16.000000 45.000000 11.000000 21.000000 45.000000 11.000000 26.000000 45.000000 11.000000 12.000000 46.000000 11.000000 17.000000 46.000000 11.000000 22.000000 46.000000 11.000000 12.000000 47.000000 11.000000 17.000000 47.000000 11.000000 23.000000 47.000000 11.000000 20.000000 48.000000 11.000000 25.000000 48.000000 11.000000 18.000000 49.000000 11.000000 23.000000 49.000000 11.000000 18.000000 50.000000 11.000000 23.000000 50.000000 11.000000 18.000000 51.000000 11.000000 15.000000 52.000000 11.000000 19.000000 4.000000 12.000000 16.000000 6.000000 12.000000 15.000000 7.000000 12.000000 21.000000 7.000000 12.000000 20.000000 8.000000 12.000000 20.000000 9.000000 12.000000 17.000000 11.000000 12.000000 19.000000 12.000000 12.000000 19.000000 14.000000 12.000000 17.000000 16.000000 12.000000 17.000000 17.000000 12.000000 16.000000 18.000000 12.000000 21.000000 18.000000 12.000000 20.000000 19.000000 12.000000 18.000000 20.000000 12.000000 12.000000 21.000000 12.000000 20.000000 21.000000 12.000000 17.000000 22.000000 12.000000 22.000000 22.000000 12.000000 17.000000 23.000000 12.000000 22.000000 23.000000 12.000000 15.000000 24.000000 12.000000 20.000000 24.000000 12.000000 15.000000 25.000000 12.000000 20.000000 25.000000 12.000000 13.000000 26.000000 12.000000 18.000000 26.000000 12.000000 23.000000 26.000000 12.000000 16.000000 27.000000 12.000000 21.000000 27.000000 12.000000 14.000000 28.000000 12.000000 19.000000 28.000000 12.000000 24.000000 28.000000 12.000000 16.000000 29.000000 12.000000 21.000000 29.000000 12.000000 12.000000 30.000000 12.000000 17.000000 30.000000 12.000000 22.000000 30.000000 12.000000 13.000000 31.000000 12.000000 18.000000 31.000000 12.000000 23.000000 31.000000 12.000000 14.000000 32.000000 12.000000 19.000000 32.000000 12.000000 24.000000 32.000000 12.000000 15.000000 33.000000 12.000000 20.000000 33.000000 12.000000 25.000000 33.000000 12.000000 16.000000 34.000000 12.000000 21.000000 34.000000 12.000000 26.000000 34.000000 12.000000 15.000000 35.000000 12.000000 20.000000 35.000000 12.000000 25.000000 35.000000 12.000000 11.000000 36.000000 12.000000 16.000000 36.000000 12.000000 21.000000 36.000000 12.000000 26.000000 36.000000 12.000000 10.000000 37.000000 12.000000 15.000000 37.000000 12.000000 20.000000 37.000000 12.000000 25.000000 37.000000 12.000000 10.000000 38.000000 12.000000 15.000000 38.000000 12.000000 20.000000 38.000000 12.000000 25.000000 38.000000 12.000000 9.000000 39.000000 12.000000 14.000000 39.000000 12.000000 21.000000 39.000000 12.000000 26.000000 39.000000 12.000000 8.000000 40.000000 12.000000 13.000000 40.000000 12.000000 21.000000 40.000000 12.000000 26.000000 40.000000 12.000000 8.000000 41.000000 12.000000 13.000000 41.000000 12.000000 21.000000 41.000000 12.000000 26.000000 41.000000 12.000000 10.000000 42.000000 12.000000 15.000000 42.000000 12.000000 23.000000 42.000000 12.000000 28.000000 42.000000 12.000000 13.000000 43.000000 12.000000 21.000000 43.000000 12.000000 26.000000 43.000000 12.000000 11.000000 44.000000 12.000000 16.000000 44.000000 12.000000 22.000000 44.000000 12.000000 27.000000 44.000000 12.000000 10.000000 45.000000 12.000000 15.000000 45.000000 12.000000 20.000000 45.000000 12.000000 25.000000 45.000000 12.000000 11.000000 46.000000 12.000000 16.000000 46.000000 12.000000 21.000000 46.000000 12.000000 26.000000 46.000000 12.000000 15.000000 47.000000 12.000000 20.000000 47.000000 12.000000 25.000000 47.000000 12.000000 21.000000 48.000000 12.000000 12.000000 49.000000 12.000000 18.000000 49.000000 12.000000 23.000000 49.000000 12.000000 18.000000 50.000000 12.000000 23.000000 5
[...]
POINT_DATA 934
VECTORS vector_field float
0.238051 0.039384 -0.970454 0.233318 -0.772019 -0.591228 -0.515148 0.334167 -0.789275 0.669117 -0.586370 -0.456567 0.033182 0.363442 -0.931026 0.669567 0.286354 -0.685333 0.031892 -0.751576 -0.658875 0.021878 0.688530 0.724877 -0.167263 0.985168 0.038310 0.954465 -0.283873 -0.091719 -0.002364 0.010082 0.999946 -0.831474 0.285819 -0.476401 0.467964 -0.437056 -0.768109 -0.361620 0.922840 0.132658 -0.744640 -0.650533 -0.149390 0.875092 -0.010290 -0.483847 -0.283215 -0.956387 0.071503 -0.396819 -0.236069 0.887021 0.529243 -0.743777 0.408286 -0.511004 0.263979 -0.818041 0.265253 -0.956385 0.122349 0.326039 -0.831701 -0.449413 0.662842 -0.681036 -0.311176 0.008126 0.943435 0.331459 -0.268550 -0.772081 0.575996 -0.126697 -0.154372 0.979856 -0.644949 0.643017 -0.413000 -0.145151 -0.372765 0.916503 0.546670 0.281667 0.788553 -0.686278 0.531888 -0.496103 0.520568 0.179755 0.834684 -0.392287 0.524461 -0.755679 -0.394362 0.356171 0.847125 0.685700 0.025797 -0.727427 -0.343643 0.902039 -0.261220 0.235594 0.516946 0.822960 -0.121143 -0.426810 -0.896191 -0.439738 0.694993 -0.568871 -0.008507 0.207923 0.978108 0.606967 -0.368722 -0.704014 -0.802923 -0.002171 -0.596079 0.269291 -0.168879 0.948136 0.721763 -0.600756 -0.343729 0.124883 0.425593 -0.896256 -0.834372 0.127213 -0.536321 -0.928812 -0.165873 -0.331352 0.334520 0.401678 -0.852497 -0.891121 0.370651 -0.261764 0.883090 0.132387 -0.450140 -0.625407 0.223938 -0.747475 0.812351 -0.037767 -0.581945 -0.529441 -0.220086 -0.819301 -0.055730 -0.998274 -0.018536 0.566256 -0.822757 0.049249 -0.663111 -0.562936 0.493343 0.045964 -0.984273 0.170571 -0.956831 0.255198 0.139096 0.018616 -0.975263 0.220263 0.016476 -0.914221 -0.404881 -0.731926 0.000000 0.681384 -0.789142 0.000000 0.614211 -0.064003 0.208559 -0.975913 -0.244849 0.474031 0.845780 -0.063581 -0.232399 0.970540 -0.259809 -0.591909 0.762983 0.132614 0.520050 0.843778 -0.546946 -0.298608 -0.782102 -0.262380 0.027285 0.964579 0.016500 -0.470268 0.882370 0.211096 -0.971797 0.105113 0.315746 -0.752655 -0.577767 -0.394326 -0.905214 -0.158416 0.044668 -0.911833 0.408124 0.006056 -0.649155 0.760632 0.420075 -0.594094 -0.685995 -0.734631 -0.539299 -0.411672 0.951992 0.182665 -0.245652 0.073329 0.271214 -0.959722 0.436222 0.452930 0.777538 -0.553142 0.362838 0.749921 -0.088839 0.638121 0.764793 -0.660057 -0.723558 -0.201961 -0.915841 -0.023526 0.400852 0.448464 -0.515108 0.730441 -0.211367 0.051495 0.976049 0.988994 -0.005772 -0.147840 0.565148 0.393712 0.724982 -0.636159 0.771298 0.020016 -0.167968 -0.341300 0.924825 -0.011703 -0.999210 0.037990 0.811942 0.315477 0.491146 -0.883611 0.137787 -0.447489 -0.273475 0.672902 0.687324 0.278334 0.882456 0.379211 0.936813 -0.348003 -0.035703 -0.209647 0.951114 0.226781 -0.282401 0.713516 0.641206 -0.935873 -0.349079 -0.047813 0.128448 -0.249743 -0.959755 -0.044396 0.998893 0.015564 -0.983847 0.178922 -0.005741 0.076476 -0.997030 0.009089 0.705175 -0.708529 -0.026730 -0.507922 -0.192844 -0.839540 0.997461 -0.068362 -0.019944 0.959893 -0.262491 -0.098514 0.221825 -0.966491 0.129186 0.107950 0.441609 -0.890690 -0.981553 -0.052034 0.183974 0.501670 0.745710 -0.438456 0.959555 -0.080636 -0.269727 -0.091721 0.552262 -0.828610 -0.931205 -0.358122 0.067864 -0.238327 0.932658 -0.270830 0.931693 0.361242 -0.038106 0.067330 0.278931 -0.957948 -0.898027 0.439936 -0.001858 -0.426064 0.612284 -0.666017 0.822895 -0.042947 -0.566568 0.031522 -0.092356 -0.995227 0.845726 -0.287313 -0.449665 0.072644 -0.974893 -0.210492 0.280169 -0.860125 -0.426251 0.379003 -0.724356 -0.575904 0.233580 -0.909224 -0.344604 0.465904 -0.519614 -0.716195 0.063935 -0.935728 -0.346879 0.440817 -0.743998 -0.502143 -0.201120 -0.794669 -0.572758 -0.726194 -0.372617 -0.577753 0.018641 0.000000 -0.999826 -0.393568 0.770036 0.502144 0.725651 -0.401828 0.558538 0.157547 -0.549850 0.820271 0.955507 -0.262562 0.134413 -0.664012 0.647563 0.373831 -0.598289 -0.135470 0.789746 -0.992200 0.040548 0.117873 0.018570 -0.825199 0.564536 0.315210 -0.591010 0.742529 0.373323 0.872488 0.315269 -0.066075 0.980309 0.186087 0.165760 -0.953118 -0.253161 0.708169 0.060355 0.703458 0.309443 -0.940929 0.137470 0.976477 -0.210174 0.048153 0.201348 -0.272525 -0.940845 0.462963 -0.886260 -0.014457 0.791964 -0.609952 0.027431 -0.779415 -0.470634 -0.413542 0.512185 -0.855361 0.077614 -0.713165 -0.696247 0.081461 -0.495738 -0.862064 0.105303 0.579072 -0.813065 0.060007 0.993242 -0.100246 0.058493 -0.176576 -0.974547 0.138128 0.715558 -0.570676 0.402872 -0.029402 -0.638896 -0.768731 0.839224 -0.542720 0.034042 -0.053703 0.704640 -0.707530 -0.101251 -0.948576 0.299919 0.184161 -0.839517 0.511171 0.004990 -0.926863 0.375366 -0.015740 -0.668326 0.743702 -0.196647 -0.864880 0.461857 0.636411 0.468065 -0.613103 -0.506226 -0.799287 -0.323846 0.820165 0.472508 0.322593 0.602799 0.327320 0.727664 -0.502019 0.508427 0.699627 0.821412 0.104215 0.560733 -0.277095 -0.945326 0.171982 0.631309 -0.564367 0.531920 -0.083090 0.012677 0.996461 0.296656 -0.863592 0.407681 -0.796641 -0.583763 -0.156795 0.897348 -0.440077 -0.033135 0.246226 -0.031859 0.968689 0.829572 -0.453880 0.325275 -0.713819 -0.672675 0.194860 0.028013 0.851140 0.524191 -0.593046 -0.133775 -0.793978 -0.152439 -0.986245 0.063904 0.265919 -0.475287 0.838683 0.110754 0.649892 0.751914 -0.113429 -0.652466 -0.749281 0.094183 -0.713449 -0.694348 -0.736651 0.078829 0.671663 0.113600 0.473119 0.873644 -0.388371 -0.368170 -0.844759 -0.480762 0.074927 -0.873644 0.697753 0.016820 0.716141 -0.032179 -0.906855 -0.420211 -0.542408 -0.491295 -0.681486 -0.267395 -0.293511 -0.917797 0.865871 -0.499700 -0.023831 0.259784 0.645608 0.718124 -0.477020 -0.795107 -0.374509 0.095484 -0.296453 -0.950262 0.402561 0.082021 -0.911711 -0.345430 -0.928480 0.136392 0.015468 -0.749418 -0.661916 -0.635997 -0.294728 -0.713192 0.117446 -0.214187 -0.969706 -0.007206 -0.613945 -0.789316 -0.040427 0.990160 0.133975 -0.021203 -0.568438 -0.822453 0.037026 0.034247 -0.998727 -0.410624 0.611454 -0.676396 0.995599 -0.091244 -0.021378 0.204604 -0.963820 -0.170847 -0.200531 0.075095 -0.976805 0.312176 -0.001414 -0.950023 0.126002 -0.509078 -0.851448 0.416229 -0.884376 -0.211265 0.052198 0.047747 -0.997495 0.309265 -0.058867 -0.949152 0.901102 0.392111 0.185105 0.052879 -0.024800 -0.998293 -0.523003 -0.338520 -0.782222 -0.093963 -0.246112 -0.964676 0.581196 0.584403 -0.566290 0.499245 -0.281706 -0.819387 -0.070623 -0.664352 -0.744076 0.379549 -0.212390 -0.900463 -0.377815 -0.817860 -0.434006 0.015935 -0.367505 -0.929885 -0.586056 -0.024262 -0.809907 -0.017987 0.173402 0.984687 0.044631 -0.007184 0.998978 0.107342 -0.764501 0.635623 -0.931619 -0.283197 0.227783 -0.397690 -0.317472 0.860845 -0.479427 -0.612252 0.628727 -0.996635 -0.004293 0.081859 -0.299530 0.298329 -0.906246 0.747495 0.055626 -0.661934 -0.458173 0.150342 0.876057 0.417751 -0.192300 0.887978 0.287164 0.067312 -0.955513 -0.916822 0.252217 0.309554 0.021077 -0.826852 0.562024 0.186724 -0.648015 0.738383 0.522489 0.322232 -0.789412 0.073930 -0.965349 0.250271 0.004298 -0.974795 0.223060 -0.750509 0.315661 -0.580598 -0.028803 -0.971411 0.235650 -0.232766 0.058969 0.970743 0.024630 -0.484577 -0.874402 0.581747 -0.802021 0.135399 -0.364971 -0.541379 -0.757433 0.650006 -0.742510 -0.161775 0.846258 0.193071 -0.496559 0.494467 -0.677617 -0.544370 0.487902 -0.319019 -0.812514 0.323031 -0.925576 0.197384 0.835463 -0.549050 0.023386 -0.521183 -0.853303 -0.015551 0.781729 -0.481060 0.396838 -0.788535 -0.292485 -0.540985 -0.240691 -0.790256 0.563527 0.758784 -0.629104 0.168746 -0.684995 0.023190 -0.728178 0.055240 -0.233477 0.970792 0.514306 -0.718709 0.467917 -0.259640 -0.573526 0.776952 0.703467 -0.194494 0.683598 0.711043 -0.445021 -0.544403 -0.021346 -0.329109 -0.944051 0.649749 -0.708151 0.276314 0.524708 0.094763 -0.845991 -0.030685 0.414533 -0.909517 -0.116126 -0.546473 -0.829387 0.696422 0.015426 -0.717466 -0.306776 0.924279 0.227149 -0.155444 -0.057333 -0.986180 0.586176 -0.792449 0.168589 -0.100438 0.993028 -0.061711 -0.098150 0.992760 -0.069237 0.034295 -0.998948 -0.030431 -0.128242 -0.093147 0.987359 -0.966673 -0.157601 -0.201755 -0.681119 0.007221 0.732137 -0.004202 -0.092851 0.995671 0.791686 0.386849 0.472843 0.349260 -0.878591 -0.325722 -0.349496 -0.813163 -0.465423 0.681997 0.111892 0.722745 0.293986 0.765194 0.572757 0.384915 -0.745559 -0.544042 -0.482909 -0.838104 -0.253734 0.554726 -0.149283 0.818531 0.478572 0.216154 -0.851027 -0.207813 -0.206553 -0.956112 0.202082 -0.754916 0.623911 -0.656938 -0.719506 0.225265 0.986314 -0.096592 -0.133619 -0.720320 0.194754 -0.665740 0.584026 0.679951 0.443373 -0.032478 -0.900734 -0.433156 0.905902 -0.370148 0.205749 -0.690282 0.141747 -0.709520 0.325177 0.459693 -0.826403 0.187258 -0.635320 -0.749201 0.156073 -0.910840 -0.382115 -0.135960 -0.425384 -0.894742 0.468479 -0.171483 -0.866672 -0.234046 0.848896 0.473917 -0.384672 -0.329182 -0.862361 -0.216105 -0.391599 -0.894399 0.221597 -0.624789 -0.748687 0.111295 -0.508773 -0.853676 -0.231968 0.222076 -0.947034 0.701291 -0.245345 -0.669326 0.713020 -0.460680 -0.528560 0.457266 -0.863063 -0.214546 -0.821098 -0.122933 -0.557392 0.008722 0.377433 -0.925996 -0.489823 -0.368894 -0.789931 0.205107 -0.978721 -0.006068 -0.108777 -0.395165 -0.912147 -0.758454 -0.608384 0.233702 -0.795403 -0.336265 -0.504242 -0.546080 -0.148011 -0.824554 -0.307269 0.035742 -0.950951 -0.656158 -0.059655 -0.752262 0.294664 -0.287443 -0.911345 -0.555054 0.481179 -0.678514 0.451014 -0.550717 -0.702351 0.037969 -0.456995 -0.888658 0.169041 -0.540789 -0.823998 0.300821 -0.606040 -0.736357 0.141861 0.473838 -0.869110 -0.331933 0.186877 -0.924607 0.440189 0.650580 0.618854 -0.572057 0.303873 0.761848 0.179246 -0.970110 0.163575 -0.370902 0.072690 0.925823 -0.436091 -0.217844 0.873137 -0.485739 -0.084448 0.870015 -0.339870 0.413962 0.844467 -0.550039 0.528742 0.646444 -0.890500 0.228240 0.393593 -0.920015 -0.027201 0.390938 0.618143 -0.672186 0.407512 0.170844 -0.433316 0.884901 -0.059135 -0.909750 0.410924 0.969791 -0.224282 0.095930 -0.997586 -0.068695 0.010121 -0.010784 -0.912807 0.408248 0.013375 -0.929502 0.368574 0.095012 -0.955510 0.279238 0.998125 0.018207 0.058441 0.081565 -0.984394 -0.155935 0.257811 -0.570747 -0.779603 0.500526 -0.251073 -0.828514 -0.004604 -0.807892 -0.589312 -0.635033 0.393080 -0.664997 0.060273 -0.363279 0.929729 0.159493 -0.262248 -0.951729 0.006675 -0.683167 -0.730232 0.449694 -0.039414 -0.892312 -0.052398 0.130919 0.990007 0.071200 -0.050870 -0.996164 0.871135 -0.131550 -0.473094 -0.978171 0.037877 0.204321 0.358929 -0.207222 0.910071 -0.500074 0.822692 0.270378 -0.388165 -0.005346 0.921574 0.877162 -0.130963 0.461991 -0.698643 0.036467 -0.714540 -0.578090 0.723629 0.377059 0.928174 0.114699 0.354029 -0.724905 0.061240 -0.686121 -0.631597 0.775112 0.016927 0.853479 0.518609 0.051167 0.699028 0.001267 -0.715093 -0.362577 0.930431 -0.053260 0.877306 -0.451607 0.162436 0.700826 -0.713325 0.003297 0.956001 0.292469 -0.022886 -0.488486 -0.851539 -0.190425 0.481703 -0.468992 0.740276 -0.064887 -0.993358 0.095020 -0.647799 -0.206595 -0.733263 0.268996 0.655970 -0.705227 -0.775743 -0.355804 0.521178 -0.040819 -0.936160 0.349197 -0.155458 -0.856652 -0.491915 -0.130927 -0.961074 -0.243299 -0.563878 0.785646 0.254563 -0.543982 0.836565 0.065136 -0.120513 -0.976099 0.180850 0.605548 -0.707510 0.364337 -0.624733 0.082870 0.776428 0.406541 -0.578627 0.707047 -0.562732 -0.370089 -0.739167 -0.979264 0.030735 -0.200243 -0.547647 -0.708824 -0.444581 -0.777576 -0.236032 -0.582808 0.279056 -0.631994 -0.722988 -0.672305 0.069457 -0.737009 0.174819 -0.502491 -0.846723 -0.454845 0.009385 -0.890521 0.171065 -0.269524 -0.947678 -0.383526 -0.027455 -0.923122 -0.270498 -0.207058 -0.940190 0.053118 -0.369644 -0.927654 -0.646524 -0.598377 0.473235 -0.158790 0.363628 -0.917911 -0.317816 -0.057650 -0.946398 -0.382074 -0.224293 -0.896500 0.198680 0.943197 -0.266283 -0.176530 -0.534440 -0.826566 -0.144283 -0.409518 -0.900821 0.641716 0.700800 -0.311576 -0.326643 0.273273 -0.904780 0.348424 -0.076454 -0.934214 -0.880077 0.248031 0.404902 0.209586 0.015627 -0.977665 0.039332 -0.095455 -0.994656 -0.408281 -0.369470 -0.834745 0.679370 0.002235 -0.733792 0.466139 0.667832 -0.580271 0.219226 0.127082 0.967363 0.047990 0.977174 -0.206947 0.151543 -0.987234 0.049023 0.319075 -0.025788 0.947378 0.447637 0.836234 0.316755 -0.801635 0.398038 0.446035 0.255238 0.775851 0.576982 0.516752 0.599556 0.611147 0.229991 0.711351 0.664141 0.629418 0.776757 0.021944 0.117827 0.253632 0.960098 0.510514 -0.097976 0.854270 0.739165 0.163761 0.653313 0.762600 0.319853 0.562260 -0.637895 0.556212 0.532653 -0.095433 0.995300 0.016443 -0.370984 0.417073 -0.829712 -0.636265 0.037285 -0.770569 0.572766 0.082154 -0.815592 -0.666957 -0.423376 0.613124 0.253515 -0.378509 0.890203 0.086206 -0.463488 0.881900 0.600488 -0.773755 -0.201784 -0.971646 -0.172436 -0.161772 -0.796782 -0.294004 -0.527920 -0.833423 -0.467589 -0.294562 -0.697697 -0.495243 -0.517641 -0.016215 -0.728270 -0.685099 0.003878 0.710169 0.704020 0.178527 0.497189 -0.849077 0.689951 0.245182 -0.681068 0.383907 0.386377 -0.838646 0.366358 0.930219 -0.021761 0.160223 -0.668044 -0.726667 0.720883 -0.149842 -0.676664 -0.174210 -0.966145 0.190303 -0.259725 -0.221356 -0.939970 0.997758 0.006472 -0.066607 0.511576 0.838012 -0.189802 -0.982620 0.035001 -0.182298 0.991172 -0.078983 -0.106486 -0.944901 0.227434 0.235449 0.042153 0.946634 -0.319543 0.346655 -0.214077 -0.913237 0.844092 0.403752 0.352836 -0.877292 -0.457513 0.145053 0.072762 -0.439573 -0.895255 0.930137 -0.366905 0.015067 -0.607831 0.236311 0.758089 0.979487 0.006738 -0.201395 -0.102724 -0.495196 -0.862687 0.965348 -0.146505 0.215959 0.158991 0.164862 0.973418 -0.483533 -0.870357 0.093134 0.645823 -0.730955 -0.220493 -0.273490 0.585773 0.762937 -0.016197 0.962929 0.269267 0.356306 0.596309 0.719348 -0.324777 -0.866088 0.380016 -0.144730 -0.548587 -0.823472 0.323331 -0.773972 0.544449 0.276416 0.933455 0.228593 -0.955194 -0.170715 0.241787 -0.164457 0.180979 -0.969639 -0.361791 -0.839592 0.405207 0.124056 0.982551 -0.138580 -0.019530 -0.239777 0.970632 -0.226851 0.144366 -0.963170 0.993481 -0.065063 0.093603 -0.011998 -0.701246 -0.712818 -0.518148 -0.054787 -0.853534 -0.834184 -0.093871 -0.543439 -0.439895 0.151368 -0.885201 -0.026183 0.151563 -0.988101 0.334713 -0.272397 -0.902091 -0.010064 0.251750 -0.967740 -0.948612 -0.290600 -0.125252 0.173988 -0.506141 -0.844719 -0.006724 0.630534 -0.776133 -0.989398 -0.072091 -0.126074 0.124917 0.104741 -0.986623 -0.821164 0.556278 0.127452 0.252349 0.304550 -0.918460 0.134013 0.913866 -0.383262 0.106971 0.804178 0.584684 -0.249579 0.961031 -0.118871 0.245859 0.468726 0.848439 0.379020 0.474342 0.794571 0.769866 0.633794 -0.074909 0.143988 0.036020 0.988924 0.180498 0.872617 0.453829 0.572856 -0.372275 0.730238 -0.036512 0.825130 0.563762 0.525367 0.308041 0.793158 -0.875342 -0.069481 0.478485 0.437344 -0.403480 0.803700 0.699756 0.049238 0.712683 0.950557 -0.247730 0.187274 0.908722 -0.412062 0.066552 -0.975999 -0.164725 -0.142451 -0.212857 0.581257 -0.785387 -0.003657 0.949144 0.314820 0.789528 0.398877 -0.466414 -0.999622 -0.027306 -0.003297 -0.930525 0.004974 -0.366196 -0.973376 -0.106224 -0.203114 0.045093 -0.646683 0.761424 0.052890 -0.802077 0.594874 -0.682777 -0.498678 -0.533981 0.413986 -0.757930 -0.504140 0.312741 0.108401 -0.943633 -0.502738 0.468409 -0.726531 -0.826444 0.300346 -0.476217 0.351338 -0.137320 -0.926123 -0.887913 0.293941 -0.353849 0.804232 -0.520806 0.286306 0.054329 -0.574644 -0.816599 0.714478 -0.652442 0.252668 -0.546641 -0.584014 -0.600093 0.748859 -0.120438 -0.651693 -0.947624 -0.294970 -0.122480 -0.855635 0.510000 -0.088255 0.736087 -0.676874 -0.004281 -0.852001 0.156592 0.499573 -0.746134 0.530727 -0.402012 0.884967 -0.410391 -0.220030 -0.742244 0.373588 0.556333 -0.822681 0.503760 -0.263480 -0.132655 0.989560 0.056339 0.645755 -0.727378 0.232211 -0.999170 -0.032823 -0.024105 -0.995283 -0.083015 0.050200 0.602394 -0.797550 0.032161 -0.880914 -0.443755 0.164536 -0.921727 0.123190 -0.367756 0.075795 -0.903488 0.421859 -0.382343 -0.731358 0.564739 -0.486266 -0.714617 -0.502860 -0.467359 0.330309 0.820044 -0.333762 -0.870706 0.361212 -0.074634 -0.891094 0.447640 -0.087547 -0.834298 -0.544318 0.658912 0.298415 0.690495 -0.248636 -0.053777 -0.967103 -0.016191 0.304772 0.952288 0.127992 0.818346 -0.560293 -0.058978 0.736015 -0.674391 -0.539393 0.649311 0.536144 -0.186178 0.880678 -0.435596 -0.465963 -0.686022 0.558795 -0.778441 0.602965 0.174536 0.630206 0.775329 -0.041303 -0.980319 -0.032654 -0.194699 -0.438164 0.768973 -0.465503 0.558297 0.738890 0.377289 0.143726 0.899880 0.411776 0.430465 0.867231 0.250219 -0.778684 -0.607940 -0.155112 0.369095 0.712841 0.596345 -0.984776 0.064303 0.161496 0.108021 0.885213 0.452471 -0.065975 0.824492 0.562015 -0.993617 -0.104381 0.042774 0.108550 0.646487 0.755164 -0.957240 -0.189991 0.218164 0.123330 0.645726 0.753544 0.966956 -0.240119 0.085667 0.872217 -0.489117 -0.001299 0.633715 -0.535932 -0.557836 0.874393 -0.446665 0.189546 0.004298 0.018081 0.999827 -0.280515 0.042082 0.958927 0.848271 0.336193 -0.409158 0.281033 0.771926 0.570220 -0.025805 0.369761 0.928768 -0.971523 0.005989 -0.236868 0.678523 -0.506012 -0.532503 0.488080 -0.588971 -0.644121 -0.884033 -0.379320 -0.273134 0.003583 -0.997973 -0.063546 0.746648 0.419068 -0.516623 0.180412 0.412411 -0.892955 0.658321 0.636892 -0.401227 -0.887109 -0.392824 -0.242336 -0.876497 -0.084312 -0.473967 -0.934862 -0.343523 -0.089582 -0.282069 0.617165 -0.734537 0.121680 -0.367623 -0.921980 0.501285 0.748671 0.433826 -0.179170 0.876858 -0.446114 0.506483 -0.811773 -0.290688 -0.882810 0.449075 -0.137765 -0.529942 0.291466 0.796372 -0.510950 0.580166 0.634301 0.981974 0.014125 0.188490 0.688686 -0.684263 -0.239784 -0.692213 -0.029953 0.721071 0.823084 -0.181205 0.538235 0.198546 -0.613082 0.764663 -0.333494 -0.250941 0.908741 0.573101 0.771696 0.275756 -0.650448 -0.655116 0.384370 -0.533381 -0.841084 -0.089901 -0.457962 -0.670752 0.583406 -0.062892 -0.992955 0.100427 -0.334313 -0.364611 0.869076 0.471988 -0.420160 0.775044 -0.434698 -0.400007 0.806866 0.591952 0.189722 0.783325 -0.734662 0.008395 0.678382 0.041696 -0.426514 0.903519 0.128555 0.521413 0.843565 -0.295971 0.907916 0.296797 -0.659244 0.434548 0.613649 -0.440184 0.700085 0.562245 -0.263132 -0.299274 0.917168 -0.741999 0.142334 0.655117 -0.698335 0.706126 0.117109 -0.897627 -0.007589 0.440690 -0.292211 0.853205 -0.432036 0.865021 0.484462 0.130519 0.098276 -0.989455 -0.106393 -0.014507 0.797320 -0.603382 -0.032152 0.846743 0.531030 -0.739486 0.620117 -0.261946 0.993907 0.109928 0.007986 -0.207272 0.978115 0.018160 0.657831 -0.671601 -0.340897 -0.487294 0.731896 0.476312 0.630495 0.768346 0.110091 0.408620 -0.179567 -0.894866 0.579705 0.706381 -0.406162 -0.607590 -0.531372 -0.590321 0.637032 -0.439662 -0.633156 0.357020 0.069405 -0.931515 -0.202046 -0.419495 0.884987 -0.190908 0.517945 0.833839 -0.988733 0.005625 -0.149584 0.750137 -0.488734 -0.445459 0.418621 -0.552259 -0.720949 0.977911 -0.058402 -0.200697 -0.716096 -0.191968 -0.671085 0.049862 -0.247931 -0.967494 -0.516131 0.579171 -0.631007 0.653103 0.038674 -0.756281 -0.782619 0.570378 -0.249353 -0.151711 0.842170 -0.517430 0.910204 0.240626 -0.337088 0.136620 -0.990322 -0.024456 0.037648 0.999217 0.012168 0.892555 0.434062 0.122214 -0.677155 0.471891 0.564606 -0.626281 0.244070 0.740407 0.782915 -0.620916 -0.038834 0.783102 0.449937 0.429310 -0.467599 -0.192953 -0.862624 -0.989210 -0.089936 0.115651 0.702638 0.536881 0.466967 0.174226 0.981683 -0.077099 -0.492748 -0.868611 -0.052099 0.827649 -0.553347 0.093835 0.105897 -0.993081 -0.050763 0.374101 -0.879878 0.293024 -0.593246 -0.801540 -0.074784 -0.721850 -0.231199 0.652289 -0.325012 -0.710701 0.623916 0.036136 -0.674059 0.737793 -0.459852 -0.510395 0.726659 0.490193 -0.214616 0.844778 -0.427921 0.176617 0.886392 -0.439849 -0.032255 0.897492 -0.327524 -0.002979 0.944838 -0.368603 0.157297 0.916182 0.7